; This file was generated using the following command:
; /opt/conda/bin/martinize2 -f /work/simulations/solvia_68_run_1/colabfold/best_model.pdb -ff martini3001 -x /work/simulations/solvia_68_run_1/coarse_grain/SOLVIA_68_cg.pdb -o /work/simulations/solvia_68_run_1/coarse_grain/SOLVIA_68.itp -name SOLVIA_68 -cter NH2-ter -maxwarn 1 -cys auto -dssp -p backbone -pf 1000
; martinize with vermouth 0.14.0
; The following sequence of secondary structure 
; was used for the full system:
; CCCEEEEECTTSCCCSTTCEEETTEEECC

; Please cite the following papers:
; Kroon, P C; Grunewald, F; Barnoud, J; van Tilburg, M; Souza, P C; Wassenaar, T A; Marrink, S J;  elife 2024; 10.7554/elife.90627.2
; McGibbon, R T; Beauchamp, K A; Harrigan, M P; Klein, C; Swails, J M; Hernández, C X; Schwantes, C R; Wang, L; Lane, T J; Pande, V S;  Biophysical Journal 2015; 10.1016/j.bpj.2015.08.015
; Souza, P C T; Alessandri, R; Barnoud, J; Thallmair, S; Faustino, I; Grünewald, F; Patmanidis, I; Abdizadeh, H; Bruininks, B M H; Wassenaar, T A; Kroon, P C; Melcr, J; Nieto, V; Corradi, V; Khan, H M; Domański, J; Javanainen, M; Martinez-Seara, H; Reuter, N; Best, R B; Vattulainen, I; Monticelli, L; Periole, X; Tieleman, D P; de Vries, A H; Marrink, S J;  Nature Methods 2021; 10.1038/s41592-021-01098-3

#ifndef POSRES_FC
#define POSRES_FC 1000.0
#endif

[ moleculetype ]
SOLVIA_68 1

[ atoms ]
 1 Q5    1 GLY BB   1    1     
 2 P2    2 LEU BB   2  0.0     
 3 SC2   2 LEU SC1  3  0.0     
 4 SP2a  3 PRO BB   4  0.0     
 5 SC3   3 PRO SC1  5  0.0     
 6 SP2   4 VAL BB   6  0.0     
 7 SC3   4 VAL SC1  7  0.0     
 8 P2    5 CYS BB   8  0.0     
 9 TC6   5 CYS SC1  9  0.0     
10 SP1   6 GLY BB  10  0.0     
11 P2    7 GLU BB  11  0.0     
12 Q5n   7 GLU SC1 12 -1.0     
13 P2    8 THR BB  13  0.0     
14 SP1   8 THR SC1 14  0.0     
15 P2    9 CYS BB  15  0.0     
16 TC6   9 CYS SC1 16  0.0     
17 SP2  10 VAL BB  17  0.0     
18 SC3  10 VAL SC1 18  0.0     
19 SP1  11 GLY BB  19  0.0     
20 SP1  12 GLY BB  20  0.0     
21 P2   13 THR BB  21  0.0     
22 SP1  13 THR SC1 22  0.0     
23 P2   14 CYS BB  23  0.0     
24 TC6  14 CYS SC1 24  0.0     
25 P2   15 ASN BB  25  0.0     
26 SP5  15 ASN SC1 26  0.0     
27 P2   16 THR BB  27  0.0     
28 SP1  16 THR SC1 28  0.0     
29 SP2a 17 PRO BB  29  0.0     
30 SC3  17 PRO SC1 30  0.0     
31 SP1  18 GLY BB  31  0.0     
32 P2   19 CYS BB  32  0.0     
33 TC6  19 CYS SC1 33  0.0     
34 P2   20 THR BB  34  0.0     
35 SP1  20 THR SC1 35  0.0     
36 P2   21 CYS BB  36  0.0     
37 TC6  21 CYS SC1 37  0.0     
38 P2   22 SER BB  38  0.0     
39 TP1  22 SER SC1 39  0.0     
40 P2   23 TRP BB  40  0.0     
41 TC4  23 TRP SC1 41  0.0 36.0
42 TN6d 23 TRP SC2 42  0.0 36.0
43 TC5  23 TRP SC3 43  0.0  0.0
44 TC5  23 TRP SC4 44  0.0 36.0
45 TC5  23 TRP SC5 45  0.0 36.0
46 SP2a 24 PRO BB  46  0.0     
47 SC3  24 PRO SC1 47  0.0     
48 SP2  25 VAL BB  48  0.0     
49 SC3  25 VAL SC1 49  0.0     
50 P2   26 CYS BB  50  0.0     
51 TC6  26 CYS SC1 51  0.0     
52 P2   27 THR BB  52  0.0     
53 SP1  27 THR SC1 53  0.0     
54 P2   28 ARG BB  54  0.0     
55 SC3  28 ARG SC1 55  0.0     
56 SQ3p 28 ARG SC2 56  1.0     
57 P6   29 ASN BB  57    0     
58 SP5  29 ASN SC1 58  0.0     

[ position_restraints ]
#ifdef POSRES
 1 1 POSRES_FC POSRES_FC POSRES_FC
 2 1 POSRES_FC POSRES_FC POSRES_FC
 4 1 POSRES_FC POSRES_FC POSRES_FC
 6 1 POSRES_FC POSRES_FC POSRES_FC
 8 1 POSRES_FC POSRES_FC POSRES_FC
10 1 POSRES_FC POSRES_FC POSRES_FC
11 1 POSRES_FC POSRES_FC POSRES_FC
13 1 POSRES_FC POSRES_FC POSRES_FC
15 1 POSRES_FC POSRES_FC POSRES_FC
17 1 POSRES_FC POSRES_FC POSRES_FC
19 1 POSRES_FC POSRES_FC POSRES_FC
20 1 POSRES_FC POSRES_FC POSRES_FC
21 1 POSRES_FC POSRES_FC POSRES_FC
23 1 POSRES_FC POSRES_FC POSRES_FC
25 1 POSRES_FC POSRES_FC POSRES_FC
27 1 POSRES_FC POSRES_FC POSRES_FC
29 1 POSRES_FC POSRES_FC POSRES_FC
31 1 POSRES_FC POSRES_FC POSRES_FC
32 1 POSRES_FC POSRES_FC POSRES_FC
34 1 POSRES_FC POSRES_FC POSRES_FC
36 1 POSRES_FC POSRES_FC POSRES_FC
38 1 POSRES_FC POSRES_FC POSRES_FC
40 1 POSRES_FC POSRES_FC POSRES_FC
46 1 POSRES_FC POSRES_FC POSRES_FC
48 1 POSRES_FC POSRES_FC POSRES_FC
50 1 POSRES_FC POSRES_FC POSRES_FC
52 1 POSRES_FC POSRES_FC POSRES_FC
54 1 POSRES_FC POSRES_FC POSRES_FC
57 1 POSRES_FC POSRES_FC POSRES_FC
#endif

[ bonds ]
; Backbone bonds
 1  2 1 0.350 4000
 2  4 1 0.350 4000
 4  6 1 0.350 4000
 6  8 1 0.350 4000
 8 10 1 0.350 4000
10 11 1 0.350 4000
11 13 1 0.350 4000
13 15 1 0.350 4000
15 17 1 0.350 4000
17 19 1 0.350 4000
19 20 1 0.350 4000
20 21 1 0.350 4000
21 23 1 0.350 4000
23 25 1 0.350 4000
25 27 1 0.350 4000
27 29 1 0.350 4000
29 31 1 0.350 4000
31 32 1 0.350 4000
32 34 1 0.350 4000
34 36 1 0.350 4000
36 38 1 0.350 4000
38 40 1 0.350 4000
40 46 1 0.350 4000
46 48 1 0.350 4000
48 50 1 0.350 4000
50 52 1 0.350 4000
52 54 1 0.350 4000
54 57 1 0.350 4000

; Long elastic bonds for extended regions
 6 11 1 0.970 2500
 8 13 1 0.970 2500

; Short elastic bonds for extended regions
 6 10 1 0.640 2500
 8 11 1 0.640 2500
10 13 1 0.640 2500

; Side chain bonds
 2  3 1 0.363 7500
 4  5 1 0.330 7500
 8  9 1 0.341 7500
11 12 1 0.400 5000
15 16 1 0.341 7500
23 24 1 0.341 7500
25 26 1 0.352 5000
29 30 1 0.330 7500
32 33 1 0.341 7500
36 37 1 0.341 7500
38 39 1 0.287 7500
40 41 1 0.315 5000
46 47 1 0.330 7500
50 51 1 0.341 7500
54 55 1 0.330 5000
55 56 1 0.380 5000
57 58 1 0.352 5000

#ifdef FLEXIBLE
; Side chain bonds
 6  7 1 0.292 1000000
13 14 1 0.305 1000000
17 18 1 0.292 1000000
21 22 1 0.305 1000000
27 28 1 0.305 1000000
34 35 1 0.305 1000000
41 42 1 0.335 1000000
42 45 1 0.412 1000000
44 45 1 0.293 1000000
41 44 1 0.404 1000000
42 44 1 0.470 1000000
48 49 1 0.292 1000000
52 53 1 0.305 1000000
#endif

[ constraints ]
 9 33 1 0.24 ; Disulfide bridge
16 37 1 0.24 ; Disulfide bridge
24 51 1 0.24 ; Disulfide bridge

#ifndef FLEXIBLE
; Side chain bonds
 6  7 1 0.292
13 14 1 0.305
17 18 1 0.292
21 22 1 0.305
27 28 1 0.305
34 35 1 0.305
41 42 1 0.335
42 45 1 0.412
44 45 1 0.293
41 44 1 0.404
42 44 1 0.470
48 49 1 0.292
52 53 1 0.305
#endif

[ angles ]
; BBB angles
 2  4  6 10 127 20
 4  6  8 10 127 25
 6  8 10 10 134 25
 8 10 11 10 134 25
10 11 13 10 134 25
11 13 15 10 127 20
13 15 17 10 100 20
31 32 34 10 100 20
32 34 36 10 127 20
34 36 38 10 134 25
36 38 40 10 100 20
38 40 46 10 100 20
40 46 48 10 100 20
46 48 50 10 100 25
48 50 52 10 134 25
50 52 54 10 127 20
52 54 57 10 127 20
 1  2  4 10 127 20
25 27 29 10 127 20
27 29 31 10 100 20
29 31 32 10 100 20
17 19 20 10 100 20
19 20 21 10 100 20
20 21 23 10 127 20
23 25 27 10 127 20
15 17 19 10 100 20
21 23 25 10 127 20

; BBS angles regular martini
 1  2  3 2 100 25
 2  4  5 2 100 25
 4  6  7 2 100 25
 6  8  9 2 100 25
10 11 12 2 100 25
11 13 14 2 100 25
13 15 16 2 100 25
15 17 18 2 100 25
20 21 22 2 100 25
21 23 24 2 100 25
23 25 26 2 100 25
25 27 28 2 100 25
27 29 30 2 100 25
31 32 33 2 100 25
32 34 35 2 100 25
34 36 37 2 100 25
36 38 39 2 100 25
38 40 41 2 100 25
40 46 47 2 100 25
46 48 49 2 100 25
48 50 51 2 100 25
50 52 53 2 100 25
52 54 55 2 100 25
54 57 58 2 100 25

; SC-BB-BB and BB-BB-SC scFix
 3  2  4 10 100 15 ; SC-BB-BB
 5  4  6 10 100 15 ; SC-BB-BB
 7  6  8 10 100 15 ; SC-BB-BB
 9  8 10 10 100 15 ; SC-BB-BB
12 11 13 10 100 15 ; SC-BB-BB
14 13 15 10 100 15 ; SC-BB-BB
16 15 17 10 100 15 ; SC-BB-BB
18 17 19 10 100 15 ; SC-BB-BB
22 21 23 10 100 15 ; SC-BB-BB
24 23 25 10 100 15 ; SC-BB-BB
26 25 27 10 100 15 ; SC-BB-BB
28 27 29 10 100 15 ; SC-BB-BB
30 29 31 10 100 15 ; SC-BB-BB
33 32 34 10 100 15 ; SC-BB-BB
35 34 36 10 100 15 ; SC-BB-BB
37 36 38 10 100 15 ; SC-BB-BB
39 38 40 10 100 15 ; SC-BB-BB
41 40 46 10 100 15 ; SC-BB-BB
47 46 48 10 100 15 ; SC-BB-BB
49 48 50 10 100 15 ; SC-BB-BB
51 50 52 10 100 15 ; SC-BB-BB
53 52 54 10 100 15 ; SC-BB-BB
55 54 57 10 100 15 ; SC-BB-BB
 1  2  3 10 100 15 ; BB-BB-SC
 2  4  5 10 100 15 ; BB-BB-SC
 4  6  7 10 100 15 ; BB-BB-SC
 6  8  9 10 100 15 ; BB-BB-SC
10 11 12 10 100 15 ; BB-BB-SC
11 13 14 10 100 15 ; BB-BB-SC
13 15 16 10 100 15 ; BB-BB-SC
15 17 18 10 100 15 ; BB-BB-SC
20 21 22 10 100 15 ; BB-BB-SC
21 23 24 10 100 15 ; BB-BB-SC
23 25 26 10 100 15 ; BB-BB-SC
25 27 28 10 100 15 ; BB-BB-SC
27 29 30 10 100 15 ; BB-BB-SC
31 32 33 10 100 15 ; BB-BB-SC
32 34 35 10 100 15 ; BB-BB-SC
34 36 37 10 100 15 ; BB-BB-SC
36 38 39 10 100 15 ; BB-BB-SC
38 40 41 10 100 15 ; BB-BB-SC
40 46 47 10 100 15 ; BB-BB-SC
46 48 49 10 100 15 ; BB-BB-SC
48 50 51 10 100 15 ; BB-BB-SC
50 52 53 10 100 15 ; BB-BB-SC
52 54 55 10 100 15 ; BB-BB-SC
54 57 58 10 100 15 ; BB-BB-SC

; Side chain angles
40 41 42 2 120.000 60.0
40 41 44 2 130.000 60.0
54 55 56 2 180.000 25.0

[ dihedrals ]
; SC-BB-BB-SC scFix
 3  2  4  5 1 100.6 75 1 ; SC-BB-BB-SC
 5  4  6  7 1 157.3 75 1 ; SC-BB-BB-SC
 7  6  8  9 1 51.8 75 1 ; SC-BB-BB-SC
12 11 13 14 1 26.1 75 1 ; SC-BB-BB-SC
14 13 15 16 1 57.2 75 1 ; SC-BB-BB-SC
16 15 17 18 1 -70.7 75 1 ; SC-BB-BB-SC
22 21 23 24 1 27.5 75 1 ; SC-BB-BB-SC
24 23 25 26 1 59.6 75 1 ; SC-BB-BB-SC
26 25 27 28 1 144.4 75 1 ; SC-BB-BB-SC
28 27 29 30 1 81.5 75 1 ; SC-BB-BB-SC
33 32 34 35 1 32.1 75 1 ; SC-BB-BB-SC
35 34 36 37 1 38.5 75 1 ; SC-BB-BB-SC
37 36 38 39 1 2.1 75 1 ; SC-BB-BB-SC
39 38 40 41 1 44.1 75 1 ; SC-BB-BB-SC
41 40 46 47 1 -90.8 75 1 ; SC-BB-BB-SC
47 46 48 49 1 142.4 75 1 ; SC-BB-BB-SC
49 48 50 51 1 41.9 75 1 ; SC-BB-BB-SC
51 50 52 53 1 39.9 75 1 ; SC-BB-BB-SC
53 52 54 55 1 6.7 75 1 ; SC-BB-BB-SC
55 54 57 58 1 55.0 75 1 ; SC-BB-BB-SC
 8 10 11 12 1 120.8 75 1 ; BB-BB-BB-SC
 9  8 10 11 1 -162.4 75 1 ; SC-BB-BB-BB
29 31 32 33 1 110.6 75 1 ; BB-BB-BB-SC
30 29 31 32 1 67.7 75 1 ; SC-BB-BB-BB
19 20 21 22 1 77.0 75 1 ; BB-BB-BB-SC
18 17 19 20 1 -11.8 75 1 ; SC-BB-BB-BB

[ dihedrals ]
45 44 42 41 2 180.0 100.0

[ virtual_sitesn ]
43 2 45 44 42 41

[ exclusions ]
40 41 42 43 44 45 
41 42 43 44 45 
42 43 44 45 
43 44 45 
44 45 

