; This file was generated using the following command:
; /opt/conda/bin/martinize2 -f /work/simulations/solvia_617_run_1/colabfold/best_model.pdb -ff martini3001 -x /work/simulations/solvia_617_run_1/coarse_grain/SOLVIA_617_cg.pdb -o /work/simulations/solvia_617_run_1/coarse_grain/SOLVIA_617.itp -name SOLVIA_617 -cter NH2-ter -maxwarn 1 -cys auto -dssp -p backbone -pf 1000
; martinize with vermouth 0.14.0
; The following sequence of secondary structure 
; was used for the full system:
; CHHHHHHHHHHHHHHHHC

; Please cite the following papers:
; Souza, P C T; Alessandri, R; Barnoud, J; Thallmair, S; Faustino, I; Grünewald, F; Patmanidis, I; Abdizadeh, H; Bruininks, B M H; Wassenaar, T A; Kroon, P C; Melcr, J; Nieto, V; Corradi, V; Khan, H M; Domański, J; Javanainen, M; Martinez-Seara, H; Reuter, N; Best, R B; Vattulainen, I; Monticelli, L; Periole, X; Tieleman, D P; de Vries, A H; Marrink, S J;  Nature Methods 2021; 10.1038/s41592-021-01098-3
; Kroon, P C; Grunewald, F; Barnoud, J; van Tilburg, M; Souza, P C; Wassenaar, T A; Marrink, S J;  elife 2024; 10.7554/elife.90627.2
; McGibbon, R T; Beauchamp, K A; Harrigan, M P; Klein, C; Swails, J M; Hernández, C X; Schwantes, C R; Wang, L; Lane, T J; Pande, V S;  Biophysical Journal 2015; 10.1016/j.bpj.2015.08.015

#ifndef POSRES_FC
#define POSRES_FC 1000.0
#endif

[ moleculetype ]
SOLVIA_617 1

[ atoms ]
 1 Q5    1 LYS BB   1   1     
 2 SC3   1 LYS SC1  2 0.0     
 3 SQ4p  1 LYS SC2  3 1.0     
 4 P2    2 LEU BB   4 0.0     
 5 SC2   2 LEU SC1  5 0.0     
 6 P2    3 LYS BB   6 0.0     
 7 SC3   3 LYS SC1  7 0.0     
 8 SQ4p  3 LYS SC2  8 1.0     
 9 P2    4 LYS BB   9 0.0     
10 SC3   4 LYS SC1 10 0.0     
11 SQ4p  4 LYS SC2 11 1.0     
12 P2    5 LEU BB  12 0.0     
13 SC2   5 LEU SC1 13 0.0     
14 P2    6 LEU BB  14 0.0     
15 SC2   6 LEU SC1 15 0.0     
16 P2    7 LYS BB  16 0.0     
17 SC3   7 LYS SC1 17 0.0     
18 SQ4p  7 LYS SC2 18 1.0     
19 P2    8 LYS BB  19 0.0     
20 SC3   8 LYS SC1 20 0.0     
21 SQ4p  8 LYS SC2 21 1.0     
22 P2    9 TRP BB  22 0.0     
23 TC4   9 TRP SC1 23 0.0 36.0
24 TN6d  9 TRP SC2 24 0.0 36.0
25 TC5   9 TRP SC3 25 0.0  0.0
26 TC5   9 TRP SC4 26 0.0 36.0
27 TC5   9 TRP SC5 27 0.0 36.0
28 P2   10 LEU BB  28 0.0     
29 SC2  10 LEU SC1 29 0.0     
30 P2   11 LYS BB  30 0.0     
31 SC3  11 LYS SC1 31 0.0     
32 SQ4p 11 LYS SC2 32 1.0     
33 P2   12 LEU BB  33 0.0     
34 SC2  12 LEU SC1 34 0.0     
35 P2   13 LEU BB  35 0.0     
36 SC2  13 LEU SC1 36 0.0     
37 P2   14 LYS BB  37 0.0     
38 SC3  14 LYS SC1 38 0.0     
39 SQ4p 14 LYS SC2 39 1.0     
40 P2   15 LYS BB  40 0.0     
41 SC3  15 LYS SC1 41 0.0     
42 SQ4p 15 LYS SC2 42 1.0     
43 P2   16 LEU BB  43 0.0     
44 SC2  16 LEU SC1 44 0.0     
45 P2   17 LEU BB  45 0.0     
46 SC2  17 LEU SC1 46 0.0     
47 P6   18 LYS BB  47   0     
48 SC3  18 LYS SC1 48 0.0     
49 SQ4p 18 LYS SC2 49 1.0     

[ position_restraints ]
#ifdef POSRES
 1 1 POSRES_FC POSRES_FC POSRES_FC
 4 1 POSRES_FC POSRES_FC POSRES_FC
 6 1 POSRES_FC POSRES_FC POSRES_FC
 9 1 POSRES_FC POSRES_FC POSRES_FC
12 1 POSRES_FC POSRES_FC POSRES_FC
14 1 POSRES_FC POSRES_FC POSRES_FC
16 1 POSRES_FC POSRES_FC POSRES_FC
19 1 POSRES_FC POSRES_FC POSRES_FC
22 1 POSRES_FC POSRES_FC POSRES_FC
28 1 POSRES_FC POSRES_FC POSRES_FC
30 1 POSRES_FC POSRES_FC POSRES_FC
33 1 POSRES_FC POSRES_FC POSRES_FC
35 1 POSRES_FC POSRES_FC POSRES_FC
37 1 POSRES_FC POSRES_FC POSRES_FC
40 1 POSRES_FC POSRES_FC POSRES_FC
43 1 POSRES_FC POSRES_FC POSRES_FC
45 1 POSRES_FC POSRES_FC POSRES_FC
47 1 POSRES_FC POSRES_FC POSRES_FC
#endif

[ bonds ]
; Side chain bonds
 1  2 1 0.330 5000
 2  3 1 0.360 5000
 4  5 1 0.363 7500
 6  7 1 0.330 5000
 7  8 1 0.360 5000
 9 10 1 0.330 5000
10 11 1 0.360 5000
12 13 1 0.363 7500
14 15 1 0.363 7500
16 17 1 0.330 5000
17 18 1 0.360 5000
19 20 1 0.330 5000
20 21 1 0.360 5000
22 23 1 0.315 5000
28 29 1 0.363 7500
30 31 1 0.330 5000
31 32 1 0.360 5000
33 34 1 0.363 7500
35 36 1 0.363 7500
37 38 1 0.330 5000
38 39 1 0.360 5000
40 41 1 0.330 5000
41 42 1 0.360 5000
43 44 1 0.363 7500
45 46 1 0.363 7500
47 48 1 0.330 5000
48 49 1 0.360 5000

#ifdef FLEXIBLE
; Side chain bonds
23 24 1 0.335 1000000
24 27 1 0.412 1000000
26 27 1 0.293 1000000
23 26 1 0.404 1000000
24 26 1 0.470 1000000
#endif

[ constraints ]
; Backbone bonds
 1  4 1 0.33
 4  6 1 0.310
 6  9 1 0.310
 9 12 1 0.310
12 14 1 0.310
14 16 1 0.310
16 19 1 0.310
19 22 1 0.310
22 28 1 0.310
28 30 1 0.310
30 33 1 0.310
33 35 1 0.310
35 37 1 0.310
37 40 1 0.310
40 43 1 0.310
43 45 1 0.310
45 47 1 0.33

#ifndef FLEXIBLE
; Side chain bonds
23 24 1 0.335
24 27 1 0.412
26 27 1 0.293
23 26 1 0.404
24 26 1 0.470
#endif

[ angles ]
; BBB angles
 1  4  6 10 127 20
 4  6  9 2 96 700
 6  9 12 2 96 700
 9 12 14 2 96 700
12 14 16 2 96 700
14 16 19 2 96 700
16 19 22 2 96 700
19 22 28 2 96 700
22 28 30 2 96 700
28 30 33 2 96 700
30 33 35 2 96 700
33 35 37 2 96 700
35 37 40 2 96 700
37 40 43 2 96 700
40 43 45 2 96 700
43 45 47 10 127 20

; BBS angles regular martini
 1  4  5 2 100 25
 4  6  7 2 100 25
 6  9 10 2 100 25
 9 12 13 2 100 25
12 14 15 2 100 25
14 16 17 2 100 25
16 19 20 2 100 25
19 22 23 2 100 25
22 28 29 2 100 25
28 30 31 2 100 25
30 33 34 2 100 25
33 35 36 2 100 25
35 37 38 2 100 25
37 40 41 2 100 25
40 43 44 2 100 25
43 45 46 2 100 25
45 47 48 2 100 25

; First SBB regular martini
 2  1  4 2 100 25

; SC-BB-BB and BB-BB-SC scFix
 2  1  4 10 100 15 ; SC-BB-BB
 5  4  6 10 100 15 ; SC-BB-BB
 7  6  9 10 100 15 ; SC-BB-BB
10  9 12 10 100 15 ; SC-BB-BB
13 12 14 10 100 15 ; SC-BB-BB
15 14 16 10 100 15 ; SC-BB-BB
17 16 19 10 100 15 ; SC-BB-BB
20 19 22 10 100 15 ; SC-BB-BB
23 22 28 10 100 15 ; SC-BB-BB
29 28 30 10 100 15 ; SC-BB-BB
31 30 33 10 100 15 ; SC-BB-BB
34 33 35 10 100 15 ; SC-BB-BB
36 35 37 10 100 15 ; SC-BB-BB
38 37 40 10 100 15 ; SC-BB-BB
41 40 43 10 100 15 ; SC-BB-BB
44 43 45 10 100 15 ; SC-BB-BB
46 45 47 10 100 15 ; SC-BB-BB
 1  4  5 10 100 15 ; BB-BB-SC
 4  6  7 10 100 15 ; BB-BB-SC
 6  9 10 10 100 15 ; BB-BB-SC
 9 12 13 10 100 15 ; BB-BB-SC
12 14 15 10 100 15 ; BB-BB-SC
14 16 17 10 100 15 ; BB-BB-SC
16 19 20 10 100 15 ; BB-BB-SC
19 22 23 10 100 15 ; BB-BB-SC
22 28 29 10 100 15 ; BB-BB-SC
28 30 31 10 100 15 ; BB-BB-SC
30 33 34 10 100 15 ; BB-BB-SC
33 35 36 10 100 15 ; BB-BB-SC
35 37 38 10 100 15 ; BB-BB-SC
37 40 41 10 100 15 ; BB-BB-SC
40 43 44 10 100 15 ; BB-BB-SC
43 45 46 10 100 15 ; BB-BB-SC
45 47 48 10 100 15 ; BB-BB-SC

; Side chain angles
 1  2  3 2 180.000 25.0
 6  7  8 2 180.000 25.0
 9 10 11 2 180.000 25.0
16 17 18 2 180.000 25.0
19 20 21 2 180.000 25.0
22 23 24 2 120.000 60.0
22 23 26 2 130.000 60.0
30 31 32 2 180.000 25.0
37 38 39 2 180.000 25.0
40 41 42 2 180.000 25.0
47 48 49 2 180.000 25.0

[ dihedrals ]
 4  6  9 12 1 -120 400 1
 6  9 12 14 1 -120 400 1
 9 12 14 16 1 -120 400 1
12 14 16 19 1 -120 400 1
14 16 19 22 1 -120 400 1
16 19 22 28 1 -120 400 1
19 22 28 30 1 -120 400 1
22 28 30 33 1 -120 400 1
28 30 33 35 1 -120 400 1
30 33 35 37 1 -120 400 1
33 35 37 40 1 -120 400 1
35 37 40 43 1 -120 400 1
37 40 43 45 1 -120 400 1

; SC-BB-BB-SC scFix
 2  1  4  5 1 -144.0 75 1 ; SC-BB-BB-SC
 5  4  6  7 1 -128.3 75 1 ; SC-BB-BB-SC
 7  6  9 10 1 -120.1 75 1 ; SC-BB-BB-SC
10  9 12 13 1 -132.3 75 1 ; SC-BB-BB-SC
13 12 14 15 1 -143.0 75 1 ; SC-BB-BB-SC
15 14 16 17 1 -138.6 75 1 ; SC-BB-BB-SC
17 16 19 20 1 -124.3 75 1 ; SC-BB-BB-SC
20 19 22 23 1 -149.2 75 1 ; SC-BB-BB-SC
23 22 28 29 1 -156.8 75 1 ; SC-BB-BB-SC
29 28 30 31 1 -132.7 75 1 ; SC-BB-BB-SC
31 30 33 34 1 -132.7 75 1 ; SC-BB-BB-SC
34 33 35 36 1 -129.2 75 1 ; SC-BB-BB-SC
36 35 37 38 1 -140.8 75 1 ; SC-BB-BB-SC
38 37 40 41 1 -138.2 75 1 ; SC-BB-BB-SC
41 40 43 44 1 -156.3 75 1 ; SC-BB-BB-SC
44 43 45 46 1 -149.0 75 1 ; SC-BB-BB-SC
46 45 47 48 1 -144.4 75 1 ; SC-BB-BB-SC

[ dihedrals ]
27 26 24 23 2 180.0 100.0

[ virtual_sitesn ]
25 2 27 26 24 23

[ exclusions ]
22 23 24 25 26 27 
23 24 25 26 27 
24 25 26 27 
25 26 27 
26 27 

