; This file was generated using the following command:
; /opt/conda/bin/martinize2 -f /work/simulations/solvia_1952_run_1/colabfold/best_model.pdb -ff martini3001 -x /work/simulations/solvia_1952_run_1/coarse_grain/SOLVIA_1952_cg.pdb -o /work/simulations/solvia_1952_run_1/coarse_grain/SOLVIA_1952.itp -name SOLVIA_1952 -cter NH2-ter -maxwarn 1 -cys auto -dssp -p backbone -pf 1000
; martinize with vermouth 0.15.0
; The following sequence of secondary structure 
; was used for the full system:
; CHHHHHHHHHHHHHHHHHCCCSCC

; Please cite the following papers:
; Kroon, P C; Grunewald, F; Barnoud, J; van Tilburg, M; Souza, P C; Wassenaar, T A; Marrink, S J;  elife 2024; 10.7554/elife.90627.2
; McGibbon, R T; Beauchamp, K A; Harrigan, M P; Klein, C; Swails, J M; Hernández, C X; Schwantes, C R; Wang, L; Lane, T J; Pande, V S;  Biophysical Journal 2015; 10.1016/j.bpj.2015.08.015
; Souza, P C T; Alessandri, R; Barnoud, J; Thallmair, S; Faustino, I; Grünewald, F; Patmanidis, I; Abdizadeh, H; Bruininks, B M H; Wassenaar, T A; Kroon, P C; Melcr, J; Nieto, V; Corradi, V; Khan, H M; Domański, J; Javanainen, M; Martinez-Seara, H; Reuter, N; Best, R B; Vattulainen, I; Monticelli, L; Periole, X; Tieleman, D P; de Vries, A H; Marrink, S J;  Nature Methods 2021; 10.1038/s41592-021-01098-3

#ifndef POSRES_FC
#define POSRES_FC 1000.0
#endif

[ moleculetype ]
SOLVIA_1952 1

[ atoms ]
 1 Q5    1 ILE BB   1    1     
 2 SC2   1 ILE SC1  2  0.0     
 3 P2    2 TRP BB   3  0.0     
 4 TC4   2 TRP SC1  4  0.0 36.0
 5 TN6d  2 TRP SC2  5  0.0 36.0
 6 TC5   2 TRP SC3  6  0.0  0.0
 7 TC5   2 TRP SC4  7  0.0 36.0
 8 TC5   2 TRP SC5  8  0.0 36.0
 9 P2    3 SER BB   9  0.0     
10 TP1   3 SER SC1 10  0.0     
11 P2    4 PHE BB  11  0.0     
12 SC4   4 PHE SC1 12  0.0     
13 TC5   4 PHE SC2 13  0.0     
14 TC5   4 PHE SC3 14  0.0     
15 P2    5 LEU BB  15  0.0     
16 SC2   5 LEU SC1 16  0.0     
17 P2    6 ILE BB  17  0.0     
18 SC2   6 ILE SC1 18  0.0     
19 P2    7 PHE BB  19  0.0     
20 SC4   7 PHE SC1 20  0.0     
21 TC5   7 PHE SC2 21  0.0     
22 TC5   7 PHE SC3 22  0.0     
23 SP2   8 ALA BB  23  0.0     
24 TC3   8 ALA SC1 24  0.0     
25 SP2   9 ALA BB  25  0.0     
26 TC3   9 ALA SC1 26  0.0     
27 P2   10 THR BB  27  0.0     
28 SP1  10 THR SC1 28  0.0     
29 P2   11 LYS BB  29  0.0     
30 SC3  11 LYS SC1 30  0.0     
31 SQ4p 11 LYS SC2 31  1.0     
32 P2   12 LEU BB  32  0.0     
33 SC2  12 LEU SC1 33  0.0     
34 P2   13 LEU BB  34  0.0     
35 SC2  13 LEU SC1 35  0.0     
36 SP2a 14 PRO BB  36  0.0     
37 SC3  14 PRO SC1 37  0.0     
38 P2   15 SER BB  38  0.0     
39 TP1  15 SER SC1 39  0.0     
40 P2   16 LEU BB  40  0.0     
41 SC2  16 LEU SC1 41  0.0     
42 P2   17 PHE BB  42  0.0     
43 SC4  17 PHE SC1 43  0.0     
44 TC5  17 PHE SC2 44  0.0     
45 TC5  17 PHE SC3 45  0.0     
46 SP1  18 GLY BB  46  0.0     
47 SP1  19 GLY BB  47  0.0     
48 SP1  20 GLY BB  48  0.0     
49 P2   21 LYS BB  49  0.0     
50 SC3  21 LYS SC1 50  0.0     
51 SQ4p 21 LYS SC2 51  1.0     
52 P2   22 LYS BB  52  0.0     
53 SC3  22 LYS SC1 53  0.0     
54 SQ4p 22 LYS SC2 54  1.0     
55 P2   23 ASP BB  55  0.0     
56 SQ5n 23 ASP SC1 56 -1.0     
57 P6   24 SER BB  57    0     
58 TP1  24 SER SC1 58  0.0     

[ position_restraints ]
#ifdef POSRES
 1 1 POSRES_FC POSRES_FC POSRES_FC
 3 1 POSRES_FC POSRES_FC POSRES_FC
 9 1 POSRES_FC POSRES_FC POSRES_FC
11 1 POSRES_FC POSRES_FC POSRES_FC
15 1 POSRES_FC POSRES_FC POSRES_FC
17 1 POSRES_FC POSRES_FC POSRES_FC
19 1 POSRES_FC POSRES_FC POSRES_FC
23 1 POSRES_FC POSRES_FC POSRES_FC
25 1 POSRES_FC POSRES_FC POSRES_FC
27 1 POSRES_FC POSRES_FC POSRES_FC
29 1 POSRES_FC POSRES_FC POSRES_FC
32 1 POSRES_FC POSRES_FC POSRES_FC
34 1 POSRES_FC POSRES_FC POSRES_FC
36 1 POSRES_FC POSRES_FC POSRES_FC
38 1 POSRES_FC POSRES_FC POSRES_FC
40 1 POSRES_FC POSRES_FC POSRES_FC
42 1 POSRES_FC POSRES_FC POSRES_FC
46 1 POSRES_FC POSRES_FC POSRES_FC
47 1 POSRES_FC POSRES_FC POSRES_FC
48 1 POSRES_FC POSRES_FC POSRES_FC
49 1 POSRES_FC POSRES_FC POSRES_FC
52 1 POSRES_FC POSRES_FC POSRES_FC
55 1 POSRES_FC POSRES_FC POSRES_FC
57 1 POSRES_FC POSRES_FC POSRES_FC
#endif

[ bonds ]
; Backbone bonds
47 48 1 0.350 4000
48 49 1 0.350 4000
49 52 1 0.350 4000
52 55 1 0.350 4000
55 57 1 0.350 4000

; Side chain bonds
 3  4 1 0.315 5000
 9 10 1 0.287 7500
11 12 1 0.325 7500
15 16 1 0.363 7500
19 20 1 0.325 7500
29 30 1 0.330 5000
30 31 1 0.360 5000
32 33 1 0.363 7500
34 35 1 0.363 7500
36 37 1 0.330 7500
38 39 1 0.287 7500
40 41 1 0.363 7500
42 43 1 0.325 7500
49 50 1 0.330 5000
50 51 1 0.360 5000
52 53 1 0.330 5000
53 54 1 0.360 5000
55 56 1 0.352 7500
57 58 1 0.287 7500

#ifdef FLEXIBLE
; Side chain bonds
 1  2 1 0.341 1000000
 4  5 1 0.335 1000000
 4  7 1 0.404 1000000
 5  7 1 0.470 1000000
 5  8 1 0.412 1000000
 7  8 1 0.293 1000000
12 13 1 0.340 1000000
12 14 1 0.340 1000000
13 14 1 0.290 1000000
17 18 1 0.341 1000000
20 21 1 0.340 1000000
20 22 1 0.340 1000000
21 22 1 0.290 1000000
23 24 1 0.270 1000000
25 26 1 0.270 1000000
27 28 1 0.305 1000000
43 44 1 0.340 1000000
43 45 1 0.340 1000000
44 45 1 0.290 1000000
#endif

[ constraints ]
; Backbone bonds
 1  3 1 0.33
 3  9 1 0.310
 9 11 1 0.310
11 15 1 0.310
15 17 1 0.310
17 19 1 0.310
19 23 1 0.310
23 25 1 0.310
25 27 1 0.310
27 29 1 0.310
29 32 1 0.310
32 34 1 0.310
34 36 1 0.310
36 38 1 0.310
38 40 1 0.310
40 42 1 0.310
42 46 1 0.310
46 47 1 0.33

#ifndef FLEXIBLE
; Side chain bonds
 1  2 1 0.341
 4  5 1 0.335
 4  7 1 0.404
 5  7 1 0.470
 5  8 1 0.412
 7  8 1 0.293
12 13 1 0.340
12 14 1 0.340
13 14 1 0.290
17 18 1 0.341
20 21 1 0.340
20 22 1 0.340
21 22 1 0.290
23 24 1 0.270
25 26 1 0.270
27 28 1 0.305
43 44 1 0.340
43 45 1 0.340
44 45 1 0.290
#endif

[ angles ]
; BBB angles
 1  3  9 10 127 20
 3  9 11 2 96 700
 9 11 15 2 96 700
11 15 17 2 96 700
15 17 19 2 96 700
17 19 23 2 96 700
19 23 25 2 96 700
23 25 27 2 96 700
25 27 29 2 96 700
27 29 32 2 96 700
29 32 34 2 96 700
32 34 36 10 98 100
34 36 38 10 98 100
36 38 40 10 98 100
38 40 42 2 96 700
40 42 46 2 96 700
42 46 47 10 127 20
46 47 48 10 127 20
47 48 49 10 127 20
48 49 52 10 127 20
49 52 55 10 127 20
52 55 57 10 127 20

; BBS angles regular martini
 1  3  4 2 100 25
 3  9 10 2 100 25
 9 11 12 2 100 25
11 15 16 2 100 25
15 17 18 2 100 25
17 19 20 2 100 25
19 23 24 2 100 25
23 25 26 2 100 25
25 27 28 2 100 25
27 29 30 2 100 25
29 32 33 2 100 25
32 34 35 2 100 25
34 36 37 2 100 25
36 38 39 2 100 25
38 40 41 2 100 25
40 42 43 2 100 25
48 49 50 2 100 25
49 52 53 2 100 25
52 55 56 2 100 25
55 57 58 2 100 25

; First SBB regular martini
 2  1  3 2 100 25

; SC-BB-BB and BB-BB-SC scFix
 2  1  3 10 100 15 ; SC-BB-BB
 1  3  4 10 100 15 ; BB-BB-SC
 4  3  9 10 100 15 ; SC-BB-BB
 3  9 10 10 100 15 ; BB-BB-SC
10  9 11 10 100 15 ; SC-BB-BB
 9 11 12 10 100 15 ; BB-BB-SC
12 11 15 10 100 15 ; SC-BB-BB
11 15 16 10 100 15 ; BB-BB-SC
16 15 17 10 100 15 ; SC-BB-BB
15 17 18 10 100 15 ; BB-BB-SC
18 17 19 10 100 15 ; SC-BB-BB
17 19 20 10 100 15 ; BB-BB-SC
20 19 23 10 100 15 ; SC-BB-BB
19 23 24 10 100 15 ; BB-BB-SC
24 23 25 10 100 15 ; SC-BB-BB
23 25 26 10 100 15 ; BB-BB-SC
26 25 27 10 100 15 ; SC-BB-BB
25 27 28 10 100 15 ; BB-BB-SC
28 27 29 10 100 15 ; SC-BB-BB
27 29 30 10 100 15 ; BB-BB-SC
30 29 32 10 100 15 ; SC-BB-BB
29 32 33 10 100 15 ; BB-BB-SC
33 32 34 10 100 15 ; SC-BB-BB
32 34 35 10 100 15 ; BB-BB-SC
35 34 36 10 100 15 ; SC-BB-BB
34 36 37 10 100 15 ; BB-BB-SC
37 36 38 10 100 15 ; SC-BB-BB
36 38 39 10 100 15 ; BB-BB-SC
39 38 40 10 100 15 ; SC-BB-BB
38 40 41 10 100 15 ; BB-BB-SC
41 40 42 10 100 15 ; SC-BB-BB
40 42 43 10 100 15 ; BB-BB-SC
43 42 46 10 100 15 ; SC-BB-BB
48 49 50 10 100 15 ; BB-BB-SC
50 49 52 10 100 15 ; SC-BB-BB
49 52 53 10 100 15 ; BB-BB-SC
53 52 55 10 100 15 ; SC-BB-BB
52 55 56 10 100 15 ; BB-BB-SC
56 55 57 10 100 15 ; SC-BB-BB
55 57 58 10 100 15 ; BB-BB-SC

; Side chain angles
 3  4  5 2 120.000 60.0
 3  4  7 2 130.000 60.0
11 12 13 2 120.000 50.0
11 12 14 2 120.000 50.0
19 20 21 2 120.000 50.0
19 20 22 2 120.000 50.0
29 30 31 2 180.000 25.0
42 43 44 2 120.000 50.0
42 43 45 2 120.000 50.0
49 50 51 2 180.000 25.0
52 53 54 2 180.000 25.0

[ dihedrals ]
 3  9 11 15 1 -120 400 1
 9 11 15 17 1 -120 400 1
11 15 17 19 1 -120 400 1
15 17 19 23 1 -120 400 1
17 19 23 25 1 -120 400 1
19 23 25 27 1 -120 400 1
23 25 27 29 1 -120 400 1
25 27 29 32 1 -120 400 1
27 29 32 34 1 -120 400 1
29 32 34 36 1 -120 400 1
32 34 36 38 1 -120 400 1
34 36 38 40 1 -120 400 1
36 38 40 42 1 -120 400 1
38 40 42 46 1 -120 400 1

; SC-BB-BB-SC scFix
 2  1  3  4 1 -108.9 75 1 ; SC-BB-BB-SC
 4  3  9 10 1 -131.9 75 1 ; SC-BB-BB-SC
10  9 11 12 1 -150.1 75 1 ; SC-BB-BB-SC
12 11 15 16 1 -125.2 75 1 ; SC-BB-BB-SC
16 15 17 18 1 -142.9 75 1 ; SC-BB-BB-SC
18 17 19 20 1 -139.3 75 1 ; SC-BB-BB-SC
20 19 23 24 1 -112.7 75 1 ; SC-BB-BB-SC
24 23 25 26 1 -143.0 75 1 ; SC-BB-BB-SC
26 25 27 28 1 -139.6 75 1 ; SC-BB-BB-SC
28 27 29 30 1 179.5 75 1 ; SC-BB-BB-SC
30 29 32 33 1 -161.3 75 1 ; SC-BB-BB-SC
33 32 34 35 1 -119.3 75 1 ; SC-BB-BB-SC
35 34 36 37 1 -108.3 75 1 ; SC-BB-BB-SC
37 36 38 39 1 167.8 75 1 ; SC-BB-BB-SC
39 38 40 41 1 -149.5 75 1 ; SC-BB-BB-SC
41 40 42 43 1 -174.2 75 1 ; SC-BB-BB-SC
43 42 46 47 1 -23.7 75 1 ; SC-BB-BB-BB
47 48 49 50 1 69.8 75 1 ; BB-BB-BB-SC
50 49 52 53 1 -42.5 75 1 ; SC-BB-BB-SC
53 52 55 56 1 -92.3 75 1 ; SC-BB-BB-SC
56 55 57 58 1 -72.3 75 1 ; SC-BB-BB-SC

[ dihedrals ]
 8  7  5  4 2 180.0 100.0

[ virtual_sitesn ]
 6 2  8  7  5  4

[ exclusions ]
 3  4  5  6  7  8 
 4  5  6  7  8 
 5  6  7  8 
 6  7  8 
 7  8 
11 12 13 14 
12 13 14 
13 14 
19 20 21 22 
20 21 22 
21 22 
42 43 44 45 
43 44 45 
44 45 

