; This file was generated using the following command:
; /opt/conda/bin/martinize2 -f /work/simulations/solvia_677_run_1/colabfold/best_model.pdb -ff martini3001 -x /work/simulations/solvia_677_run_1/coarse_grain/SOLVIA_677_cg.pdb -o /work/simulations/solvia_677_run_1/coarse_grain/SOLVIA_677.itp -name SOLVIA_677 -cter NH2-ter -maxwarn 1 -cys auto -dssp -p backbone -pf 1000
; martinize with vermouth 0.15.0
; The following sequence of secondary structure 
; was used for the full system:
; CCHHHHHHHHHHC

; Please cite the following papers:
; McGibbon, R T; Beauchamp, K A; Harrigan, M P; Klein, C; Swails, J M; Hernández, C X; Schwantes, C R; Wang, L; Lane, T J; Pande, V S;  Biophysical Journal 2015; 10.1016/j.bpj.2015.08.015
; Kroon, P C; Grunewald, F; Barnoud, J; van Tilburg, M; Souza, P C; Wassenaar, T A; Marrink, S J;  elife 2024; 10.7554/elife.90627.2
; Souza, P C T; Alessandri, R; Barnoud, J; Thallmair, S; Faustino, I; Grünewald, F; Patmanidis, I; Abdizadeh, H; Bruininks, B M H; Wassenaar, T A; Kroon, P C; Melcr, J; Nieto, V; Corradi, V; Khan, H M; Domański, J; Javanainen, M; Martinez-Seara, H; Reuter, N; Best, R B; Vattulainen, I; Monticelli, L; Periole, X; Tieleman, D P; de Vries, A H; Marrink, S J;  Nature Methods 2021; 10.1038/s41592-021-01098-3

#ifndef POSRES_FC
#define POSRES_FC 1000.0
#endif

[ moleculetype ]
SOLVIA_677 1

[ atoms ]
 1 Q5    1 LYS BB   1   1     
 2 SC3   1 LYS SC1  2 0.0     
 3 SQ4p  1 LYS SC2  3 1.0     
 4 P2    2 TRP BB   4 0.0     
 5 TC4   2 TRP SC1  5 0.0 36.0
 6 TN6d  2 TRP SC2  6 0.0 36.0
 7 TC5   2 TRP SC3  7 0.0  0.0
 8 TC5   2 TRP SC4  8 0.0 36.0
 9 TC5   2 TRP SC5  9 0.0 36.0
10 P2    3 LYS BB  10 0.0     
11 SC3   3 LYS SC1 11 0.0     
12 SQ4p  3 LYS SC2 12 1.0     
13 P2    4 LYS BB  13 0.0     
14 SC3   4 LYS SC1 14 0.0     
15 SQ4p  4 LYS SC2 15 1.0     
16 P2    5 LEU BB  16 0.0     
17 SC2   5 LEU SC1 17 0.0     
18 P2    6 LEU BB  18 0.0     
19 SC2   6 LEU SC1 19 0.0     
20 P2    7 LYS BB  20 0.0     
21 SC3   7 LYS SC1 21 0.0     
22 SQ4p  7 LYS SC2 22 1.0     
23 P2    8 LYS BB  23 0.0     
24 SC3   8 LYS SC1 24 0.0     
25 SQ4p  8 LYS SC2 25 1.0     
26 P2    9 LEU BB  26 0.0     
27 SC2   9 LEU SC1 27 0.0     
28 P2   10 LEU BB  28 0.0     
29 SC2  10 LEU SC1 29 0.0     
30 P2   11 LYS BB  30 0.0     
31 SC3  11 LYS SC1 31 0.0     
32 SQ4p 11 LYS SC2 32 1.0     
33 P2   12 LEU BB  33 0.0     
34 SC2  12 LEU SC1 34 0.0     
35 P6   13 LEU BB  35   0     
36 SC2  13 LEU SC1 36 0.0     

[ position_restraints ]
#ifdef POSRES
 1 1 POSRES_FC POSRES_FC POSRES_FC
 4 1 POSRES_FC POSRES_FC POSRES_FC
10 1 POSRES_FC POSRES_FC POSRES_FC
13 1 POSRES_FC POSRES_FC POSRES_FC
16 1 POSRES_FC POSRES_FC POSRES_FC
18 1 POSRES_FC POSRES_FC POSRES_FC
20 1 POSRES_FC POSRES_FC POSRES_FC
23 1 POSRES_FC POSRES_FC POSRES_FC
26 1 POSRES_FC POSRES_FC POSRES_FC
28 1 POSRES_FC POSRES_FC POSRES_FC
30 1 POSRES_FC POSRES_FC POSRES_FC
33 1 POSRES_FC POSRES_FC POSRES_FC
35 1 POSRES_FC POSRES_FC POSRES_FC
#endif

[ bonds ]
; Backbone bonds
 1  4 1 0.350 4000

; Side chain bonds
 1  2 1 0.330 5000
 2  3 1 0.360 5000
 4  5 1 0.315 5000
10 11 1 0.330 5000
11 12 1 0.360 5000
13 14 1 0.330 5000
14 15 1 0.360 5000
16 17 1 0.363 7500
18 19 1 0.363 7500
20 21 1 0.330 5000
21 22 1 0.360 5000
23 24 1 0.330 5000
24 25 1 0.360 5000
26 27 1 0.363 7500
28 29 1 0.363 7500
30 31 1 0.330 5000
31 32 1 0.360 5000
33 34 1 0.363 7500
35 36 1 0.363 7500

#ifdef FLEXIBLE
; Side chain bonds
 5  6 1 0.335 1000000
 5  8 1 0.404 1000000
 6  8 1 0.470 1000000
 6  9 1 0.412 1000000
 8  9 1 0.293 1000000
#endif

[ constraints ]
; Backbone bonds
 4 10 1 0.33
10 13 1 0.310
13 16 1 0.310
16 18 1 0.310
18 20 1 0.310
20 23 1 0.310
23 26 1 0.310
26 28 1 0.310
28 30 1 0.310
30 33 1 0.310
33 35 1 0.33

#ifndef FLEXIBLE
; Side chain bonds
 5  6 1 0.335
 5  8 1 0.404
 6  8 1 0.470
 6  9 1 0.412
 8  9 1 0.293
#endif

[ angles ]
; BBB angles
 1  4 10 10 127 20
 4 10 13 10 127 20
10 13 16 2 96 700
13 16 18 2 96 700
16 18 20 2 96 700
18 20 23 2 96 700
20 23 26 2 96 700
23 26 28 2 96 700
26 28 30 2 96 700
28 30 33 2 96 700
30 33 35 10 127 20

; BBS angles regular martini
 1  4  5 2 100 25
 4 10 11 2 100 25
10 13 14 2 100 25
13 16 17 2 100 25
16 18 19 2 100 25
18 20 21 2 100 25
20 23 24 2 100 25
23 26 27 2 100 25
26 28 29 2 100 25
28 30 31 2 100 25
30 33 34 2 100 25
33 35 36 2 100 25

; First SBB regular martini
 2  1  4 2 100 25

; SC-BB-BB and BB-BB-SC scFix
 2  1  4 10 100 15 ; SC-BB-BB
 1  4  5 10 100 15 ; BB-BB-SC
 5  4 10 10 100 15 ; SC-BB-BB
 4 10 11 10 100 15 ; BB-BB-SC
11 10 13 10 100 15 ; SC-BB-BB
10 13 14 10 100 15 ; BB-BB-SC
14 13 16 10 100 15 ; SC-BB-BB
13 16 17 10 100 15 ; BB-BB-SC
17 16 18 10 100 15 ; SC-BB-BB
16 18 19 10 100 15 ; BB-BB-SC
19 18 20 10 100 15 ; SC-BB-BB
18 20 21 10 100 15 ; BB-BB-SC
21 20 23 10 100 15 ; SC-BB-BB
20 23 24 10 100 15 ; BB-BB-SC
24 23 26 10 100 15 ; SC-BB-BB
23 26 27 10 100 15 ; BB-BB-SC
27 26 28 10 100 15 ; SC-BB-BB
26 28 29 10 100 15 ; BB-BB-SC
29 28 30 10 100 15 ; SC-BB-BB
28 30 31 10 100 15 ; BB-BB-SC
31 30 33 10 100 15 ; SC-BB-BB
30 33 34 10 100 15 ; BB-BB-SC
34 33 35 10 100 15 ; SC-BB-BB
33 35 36 10 100 15 ; BB-BB-SC

; Side chain angles
 1  2  3 2 180.000 25.0
 4  5  6 2 120.000 60.0
 4  5  8 2 130.000 60.0
10 11 12 2 180.000 25.0
13 14 15 2 180.000 25.0
20 21 22 2 180.000 25.0
23 24 25 2 180.000 25.0
30 31 32 2 180.000 25.0

[ dihedrals ]
10 13 16 18 1 -120 400 1
13 16 18 20 1 -120 400 1
16 18 20 23 1 -120 400 1
18 20 23 26 1 -120 400 1
20 23 26 28 1 -120 400 1
23 26 28 30 1 -120 400 1
26 28 30 33 1 -120 400 1

; SC-BB-BB-SC scFix
 2  1  4  5 1 -32.2 75 1 ; SC-BB-BB-SC
 5  4 10 11 1 -137.1 75 1 ; SC-BB-BB-SC
11 10 13 14 1 -117.5 75 1 ; SC-BB-BB-SC
14 13 16 17 1 -126.6 75 1 ; SC-BB-BB-SC
17 16 18 19 1 -129.0 75 1 ; SC-BB-BB-SC
19 18 20 21 1 -130.0 75 1 ; SC-BB-BB-SC
21 20 23 24 1 -127.7 75 1 ; SC-BB-BB-SC
24 23 26 27 1 -139.8 75 1 ; SC-BB-BB-SC
27 26 28 29 1 -142.8 75 1 ; SC-BB-BB-SC
29 28 30 31 1 -139.0 75 1 ; SC-BB-BB-SC
31 30 33 34 1 -139.6 75 1 ; SC-BB-BB-SC
34 33 35 36 1 -117.2 75 1 ; SC-BB-BB-SC

[ dihedrals ]
 9  8  6  5 2 180.0 100.0

[ virtual_sitesn ]
 7 2  9  8  6  5

[ exclusions ]
 4  5  6  7  8  9 
 5  6  7  8  9 
 6  7  8  9 
 7  8  9 
 8  9 

