; This file was generated using the following command:
; /opt/conda/bin/martinize2 -f /work/simulations/solvia_1045_run_1/colabfold/best_model.pdb -ff martini3001 -x /work/simulations/solvia_1045_run_1/coarse_grain/SOLVIA_1045_cg.pdb -o /work/simulations/solvia_1045_run_1/coarse_grain/SOLVIA_1045.itp -name SOLVIA_1045 -cter NH2-ter -maxwarn 1 -cys auto -dssp -p backbone -pf 1000
; martinize with vermouth 0.14.0
; The following sequence of secondary structure 
; was used for the full system:
; CHHHHHHHHHHHHHHHHHHC

; Please cite the following papers:
; Souza, P C T; Alessandri, R; Barnoud, J; Thallmair, S; Faustino, I; Grünewald, F; Patmanidis, I; Abdizadeh, H; Bruininks, B M H; Wassenaar, T A; Kroon, P C; Melcr, J; Nieto, V; Corradi, V; Khan, H M; Domański, J; Javanainen, M; Martinez-Seara, H; Reuter, N; Best, R B; Vattulainen, I; Monticelli, L; Periole, X; Tieleman, D P; de Vries, A H; Marrink, S J;  Nature Methods 2021; 10.1038/s41592-021-01098-3
; Kroon, P C; Grunewald, F; Barnoud, J; van Tilburg, M; Souza, P C; Wassenaar, T A; Marrink, S J;  elife 2024; 10.7554/elife.90627.2
; McGibbon, R T; Beauchamp, K A; Harrigan, M P; Klein, C; Swails, J M; Hernández, C X; Schwantes, C R; Wang, L; Lane, T J; Pande, V S;  Biophysical Journal 2015; 10.1016/j.bpj.2015.08.015

#ifndef POSRES_FC
#define POSRES_FC 1000.0
#endif

[ moleculetype ]
SOLVIA_1045 1

[ atoms ]
 1 Q5    1 LYS BB   1   1 
 2 SC3   1 LYS SC1  2 0.0 
 3 SQ4p  1 LYS SC2  3 1.0 
 4 P2    2 ILE BB   4 0.0 
 5 SC2   2 ILE SC1  5 0.0 
 6 SP2   3 ALA BB   6 0.0 
 7 TC3   3 ALA SC1  7 0.0 
 8 P2    4 LEU BB   8 0.0 
 9 SC2   4 LEU SC1  9 0.0 
10 P2    5 LYS BB  10 0.0 
11 SC3   5 LYS SC1 11 0.0 
12 SQ4p  5 LYS SC2 12 1.0 
13 SP2   6 ALA BB  13 0.0 
14 TC3   6 ALA SC1 14 0.0 
15 P2    7 LEU BB  15 0.0 
16 SC2   7 LEU SC1 16 0.0 
17 P2    8 LYS BB  17 0.0 
18 SC3   8 LYS SC1 18 0.0 
19 SQ4p  8 LYS SC2 19 1.0 
20 SP2   9 ALA BB  20 0.0 
21 TC3   9 ALA SC1 21 0.0 
22 P2   10 LEU BB  22 0.0 
23 SC2  10 LEU SC1 23 0.0 
24 P2   11 LYS BB  24 0.0 
25 SC3  11 LYS SC1 25 0.0 
26 SQ4p 11 LYS SC2 26 1.0 
27 SP2  12 ALA BB  27 0.0 
28 TC3  12 ALA SC1 28 0.0 
29 P2   13 LEU BB  29 0.0 
30 SC2  13 LEU SC1 30 0.0 
31 SP1  14 GLY BB  31 0.0 
32 P2   15 LYS BB  32 0.0 
33 SC3  15 LYS SC1 33 0.0 
34 SQ4p 15 LYS SC2 34 1.0 
35 SP2  16 ALA BB  35 0.0 
36 TC3  16 ALA SC1 36 0.0 
37 P2   17 LEU BB  37 0.0 
38 SC2  17 LEU SC1 38 0.0 
39 P2   18 LYS BB  39 0.0 
40 SC3  18 LYS SC1 40 0.0 
41 SQ4p 18 LYS SC2 41 1.0 
42 SP2  19 ALA BB  42 0.0 
43 TC3  19 ALA SC1 43 0.0 
44 P6   20 LEU BB  44   0 
45 SC2  20 LEU SC1 45 0.0 

[ position_restraints ]
#ifdef POSRES
 1 1 POSRES_FC POSRES_FC POSRES_FC
 4 1 POSRES_FC POSRES_FC POSRES_FC
 6 1 POSRES_FC POSRES_FC POSRES_FC
 8 1 POSRES_FC POSRES_FC POSRES_FC
10 1 POSRES_FC POSRES_FC POSRES_FC
13 1 POSRES_FC POSRES_FC POSRES_FC
15 1 POSRES_FC POSRES_FC POSRES_FC
17 1 POSRES_FC POSRES_FC POSRES_FC
20 1 POSRES_FC POSRES_FC POSRES_FC
22 1 POSRES_FC POSRES_FC POSRES_FC
24 1 POSRES_FC POSRES_FC POSRES_FC
27 1 POSRES_FC POSRES_FC POSRES_FC
29 1 POSRES_FC POSRES_FC POSRES_FC
31 1 POSRES_FC POSRES_FC POSRES_FC
32 1 POSRES_FC POSRES_FC POSRES_FC
35 1 POSRES_FC POSRES_FC POSRES_FC
37 1 POSRES_FC POSRES_FC POSRES_FC
39 1 POSRES_FC POSRES_FC POSRES_FC
42 1 POSRES_FC POSRES_FC POSRES_FC
44 1 POSRES_FC POSRES_FC POSRES_FC
#endif

[ bonds ]
; Side chain bonds
 1  2 1 0.330 5000
 2  3 1 0.360 5000
 8  9 1 0.363 7500
10 11 1 0.330 5000
11 12 1 0.360 5000
15 16 1 0.363 7500
17 18 1 0.330 5000
18 19 1 0.360 5000
22 23 1 0.363 7500
24 25 1 0.330 5000
25 26 1 0.360 5000
29 30 1 0.363 7500
32 33 1 0.330 5000
33 34 1 0.360 5000
37 38 1 0.363 7500
39 40 1 0.330 5000
40 41 1 0.360 5000
44 45 1 0.363 7500

#ifdef FLEXIBLE
; Side chain bonds
 4  5 1 0.341 1000000
 6  7 1 0.270 1000000
13 14 1 0.270 1000000
20 21 1 0.270 1000000
27 28 1 0.270 1000000
35 36 1 0.270 1000000
42 43 1 0.270 1000000
#endif

[ constraints ]
; Backbone bonds
 1  4 1 0.33
 4  6 1 0.310
 6  8 1 0.310
 8 10 1 0.310
10 13 1 0.310
13 15 1 0.310
15 17 1 0.310
17 20 1 0.310
20 22 1 0.310
22 24 1 0.310
24 27 1 0.310
27 29 1 0.310
29 31 1 0.310
31 32 1 0.310
32 35 1 0.310
35 37 1 0.310
37 39 1 0.310
39 42 1 0.310
42 44 1 0.33

#ifndef FLEXIBLE
; Side chain bonds
 4  5 1 0.341
 6  7 1 0.270
13 14 1 0.270
20 21 1 0.270
27 28 1 0.270
35 36 1 0.270
42 43 1 0.270
#endif

[ angles ]
; BBB angles
 1  4  6 10 127 20
 4  6  8 2 96 700
 6  8 10 2 96 700
 8 10 13 2 96 700
10 13 15 2 96 700
13 15 17 2 96 700
15 17 20 2 96 700
17 20 22 2 96 700
20 22 24 2 96 700
22 24 27 2 96 700
24 27 29 2 96 700
27 29 31 2 96 700
29 31 32 2 96 700
31 32 35 2 96 700
32 35 37 2 96 700
35 37 39 2 96 700
37 39 42 2 96 700
39 42 44 10 127 20

; BBS angles regular martini
 1  4  5 2 100 25
 4  6  7 2 100 25
 6  8  9 2 100 25
 8 10 11 2 100 25
10 13 14 2 100 25
13 15 16 2 100 25
15 17 18 2 100 25
17 20 21 2 100 25
20 22 23 2 100 25
22 24 25 2 100 25
24 27 28 2 100 25
27 29 30 2 100 25
31 32 33 2 100 25
32 35 36 2 100 25
35 37 38 2 100 25
37 39 40 2 100 25
39 42 43 2 100 25
42 44 45 2 100 25

; First SBB regular martini
 2  1  4 2 100 25

; SC-BB-BB and BB-BB-SC scFix
 2  1  4 10 100 15 ; SC-BB-BB
 5  4  6 10 100 15 ; SC-BB-BB
 7  6  8 10 100 15 ; SC-BB-BB
 9  8 10 10 100 15 ; SC-BB-BB
11 10 13 10 100 15 ; SC-BB-BB
14 13 15 10 100 15 ; SC-BB-BB
16 15 17 10 100 15 ; SC-BB-BB
18 17 20 10 100 15 ; SC-BB-BB
21 20 22 10 100 15 ; SC-BB-BB
23 22 24 10 100 15 ; SC-BB-BB
25 24 27 10 100 15 ; SC-BB-BB
28 27 29 10 100 15 ; SC-BB-BB
30 29 31 10 100 15 ; SC-BB-BB
33 32 35 10 100 15 ; SC-BB-BB
36 35 37 10 100 15 ; SC-BB-BB
38 37 39 10 100 15 ; SC-BB-BB
40 39 42 10 100 15 ; SC-BB-BB
43 42 44 10 100 15 ; SC-BB-BB
 1  4  5 10 100 15 ; BB-BB-SC
 4  6  7 10 100 15 ; BB-BB-SC
 6  8  9 10 100 15 ; BB-BB-SC
 8 10 11 10 100 15 ; BB-BB-SC
10 13 14 10 100 15 ; BB-BB-SC
13 15 16 10 100 15 ; BB-BB-SC
15 17 18 10 100 15 ; BB-BB-SC
17 20 21 10 100 15 ; BB-BB-SC
20 22 23 10 100 15 ; BB-BB-SC
22 24 25 10 100 15 ; BB-BB-SC
24 27 28 10 100 15 ; BB-BB-SC
27 29 30 10 100 15 ; BB-BB-SC
31 32 33 10 100 15 ; BB-BB-SC
32 35 36 10 100 15 ; BB-BB-SC
35 37 38 10 100 15 ; BB-BB-SC
37 39 40 10 100 15 ; BB-BB-SC
39 42 43 10 100 15 ; BB-BB-SC
42 44 45 10 100 15 ; BB-BB-SC

; Side chain angles
 1  2  3 2 180.000 25.0
10 11 12 2 180.000 25.0
17 18 19 2 180.000 25.0
24 25 26 2 180.000 25.0
32 33 34 2 180.000 25.0
39 40 41 2 180.000 25.0

[ dihedrals ]
 4  6  8 10 1 -120 400 1
 6  8 10 13 1 -120 400 1
 8 10 13 15 1 -120 400 1
10 13 15 17 1 -120 400 1
13 15 17 20 1 -120 400 1
15 17 20 22 1 -120 400 1
17 20 22 24 1 -120 400 1
20 22 24 27 1 -120 400 1
22 24 27 29 1 -120 400 1
24 27 29 31 1 -120 400 1
27 29 31 32 1 -120 400 1
29 31 32 35 1 -120 400 1
31 32 35 37 1 -120 400 1
32 35 37 39 1 -120 400 1
35 37 39 42 1 -120 400 1

; SC-BB-BB-SC scFix
 2  1  4  5 1 -107.2 75 1 ; SC-BB-BB-SC
 5  4  6  7 1 -134.0 75 1 ; SC-BB-BB-SC
 7  6  8  9 1 -159.1 75 1 ; SC-BB-BB-SC
 9  8 10 11 1 -124.4 75 1 ; SC-BB-BB-SC
11 10 13 14 1 -120.4 75 1 ; SC-BB-BB-SC
14 13 15 16 1 -149.1 75 1 ; SC-BB-BB-SC
16 15 17 18 1 -118.4 75 1 ; SC-BB-BB-SC
18 17 20 21 1 -135.5 75 1 ; SC-BB-BB-SC
21 20 22 23 1 -155.6 75 1 ; SC-BB-BB-SC
23 22 24 25 1 -133.6 75 1 ; SC-BB-BB-SC
25 24 27 28 1 -117.0 75 1 ; SC-BB-BB-SC
28 27 29 30 1 -150.7 75 1 ; SC-BB-BB-SC
33 32 35 36 1 -135.2 75 1 ; SC-BB-BB-SC
36 35 37 38 1 -160.4 75 1 ; SC-BB-BB-SC
38 37 39 40 1 -143.2 75 1 ; SC-BB-BB-SC
40 39 42 43 1 -123.0 75 1 ; SC-BB-BB-SC
43 42 44 45 1 -153.0 75 1 ; SC-BB-BB-SC
29 31 32 33 1 89.9 75 1 ; BB-BB-BB-SC
30 29 31 32 1 31.3 75 1 ; SC-BB-BB-BB

