; This file was generated using the following command:
; /opt/conda/bin/martinize2 -f /work/simulations/solvia_1051_run_1/colabfold/best_model.pdb -ff martini3001 -x /work/simulations/solvia_1051_run_1/coarse_grain/SOLVIA_1051_cg.pdb -o /work/simulations/solvia_1051_run_1/coarse_grain/SOLVIA_1051.itp -name SOLVIA_1051 -cter NH2-ter -maxwarn 1 -cys auto -dssp -p backbone -pf 1000
; martinize with vermouth 0.15.0
; The following sequence of secondary structure 
; was used for the full system:
; CTTHHHHHHHHHHHHHHC

; Please cite the following papers:
; Souza, P C T; Alessandri, R; Barnoud, J; Thallmair, S; Faustino, I; Grünewald, F; Patmanidis, I; Abdizadeh, H; Bruininks, B M H; Wassenaar, T A; Kroon, P C; Melcr, J; Nieto, V; Corradi, V; Khan, H M; Domański, J; Javanainen, M; Martinez-Seara, H; Reuter, N; Best, R B; Vattulainen, I; Monticelli, L; Periole, X; Tieleman, D P; de Vries, A H; Marrink, S J;  Nature Methods 2021; 10.1038/s41592-021-01098-3
; Kroon, P C; Grunewald, F; Barnoud, J; van Tilburg, M; Souza, P C; Wassenaar, T A; Marrink, S J;  elife 2024; 10.7554/elife.90627.2
; McGibbon, R T; Beauchamp, K A; Harrigan, M P; Klein, C; Swails, J M; Hernández, C X; Schwantes, C R; Wang, L; Lane, T J; Pande, V S;  Biophysical Journal 2015; 10.1016/j.bpj.2015.08.015

#ifndef POSRES_FC
#define POSRES_FC 1000.0
#endif

[ moleculetype ]
SOLVIA_1051 1

[ atoms ]
 1 Q5    1 GLY BB   1   1 
 2 P2    2 LYS BB   2 0.0 
 3 SC3   2 LYS SC1  3 0.0 
 4 SQ4p  2 LYS SC2  4 1.0 
 5 P2    3 LEU BB   5 0.0 
 6 SC2   3 LEU SC1  6 0.0 
 7 SP1   4 GLY BB   7 0.0 
 8 SP2a  5 PRO BB   8 0.0 
 9 SC3   5 PRO SC1  9 0.0 
10 P2    6 LEU BB  10 0.0 
11 SC2   6 LEU SC1 11 0.0 
12 P2    7 LEU BB  12 0.0 
13 SC2   7 LEU SC1 13 0.0 
14 P2    8 LYS BB  14 0.0 
15 SC3   8 LYS SC1 15 0.0 
16 SQ4p  8 LYS SC2 16 1.0 
17 P2    9 ILE BB  17 0.0 
18 SC2   9 ILE SC1 18 0.0 
19 SP2  10 ALA BB  19 0.0 
20 TC3  10 ALA SC1 20 0.0 
21 SP2  11 ALA BB  21 0.0 
22 TC3  11 ALA SC1 22 0.0 
23 P2   12 LYS BB  23 0.0 
24 SC3  12 LYS SC1 24 0.0 
25 SQ4p 12 LYS SC2 25 1.0 
26 SP2  13 VAL BB  26 0.0 
27 SC3  13 VAL SC1 27 0.0 
28 SP1  14 GLY BB  28 0.0 
29 P2   15 SER BB  29 0.0 
30 TP1  15 SER SC1 30 0.0 
31 P2   16 ASN BB  31 0.0 
32 SP5  16 ASN SC1 32 0.0 
33 P2   17 LEU BB  33 0.0 
34 SC2  17 LEU SC1 34 0.0 
35 P6   18 LEU BB  35   0 
36 SC2  18 LEU SC1 36 0.0 

[ position_restraints ]
#ifdef POSRES
 1 1 POSRES_FC POSRES_FC POSRES_FC
 2 1 POSRES_FC POSRES_FC POSRES_FC
 5 1 POSRES_FC POSRES_FC POSRES_FC
 7 1 POSRES_FC POSRES_FC POSRES_FC
 8 1 POSRES_FC POSRES_FC POSRES_FC
10 1 POSRES_FC POSRES_FC POSRES_FC
12 1 POSRES_FC POSRES_FC POSRES_FC
14 1 POSRES_FC POSRES_FC POSRES_FC
17 1 POSRES_FC POSRES_FC POSRES_FC
19 1 POSRES_FC POSRES_FC POSRES_FC
21 1 POSRES_FC POSRES_FC POSRES_FC
23 1 POSRES_FC POSRES_FC POSRES_FC
26 1 POSRES_FC POSRES_FC POSRES_FC
28 1 POSRES_FC POSRES_FC POSRES_FC
29 1 POSRES_FC POSRES_FC POSRES_FC
31 1 POSRES_FC POSRES_FC POSRES_FC
33 1 POSRES_FC POSRES_FC POSRES_FC
35 1 POSRES_FC POSRES_FC POSRES_FC
#endif

[ bonds ]
; Backbone bonds
 1  2 1 0.350 4000
 2  5 1 0.350 4000

; Side chain bonds
 2  3 1 0.330 5000
 3  4 1 0.360 5000
 5  6 1 0.363 7500
 8  9 1 0.330 7500
10 11 1 0.363 7500
12 13 1 0.363 7500
14 15 1 0.330 5000
15 16 1 0.360 5000
23 24 1 0.330 5000
24 25 1 0.360 5000
29 30 1 0.287 7500
31 32 1 0.352 5000
33 34 1 0.363 7500
35 36 1 0.363 7500

#ifdef FLEXIBLE
; Side chain bonds
17 18 1 0.341 1000000
19 20 1 0.270 1000000
21 22 1 0.270 1000000
26 27 1 0.292 1000000
#endif

[ constraints ]
; Backbone bonds
 5  7 1 0.33
 7  8 1 0.310
 8 10 1 0.310
10 12 1 0.310
12 14 1 0.310
14 17 1 0.310
17 19 1 0.310
19 21 1 0.310
21 23 1 0.310
23 26 1 0.310
26 28 1 0.310
28 29 1 0.310
29 31 1 0.310
31 33 1 0.310
33 35 1 0.33

#ifndef FLEXIBLE
; Side chain bonds
17 18 1 0.341
19 20 1 0.270
21 22 1 0.270
26 27 1 0.292
#endif

[ angles ]
; BBB angles
 1  2  5 10 100 20
 2  5  7 10 100 20
 5  7  8 10 100 20
 7  8 10 10 98 100
 8 10 12 10 98 100
10 12 14 2 96 700
12 14 17 2 96 700
14 17 19 2 96 700
17 19 21 2 96 700
19 21 23 2 96 700
21 23 26 2 96 700
23 26 28 2 96 700
26 28 29 2 96 700
28 29 31 2 96 700
29 31 33 2 96 700
31 33 35 10 127 20

; BBS angles regular martini
 1  2  3 2 100 25
 2  5  6 2 100 25
 7  8  9 2 100 25
 8 10 11 2 100 25
10 12 13 2 100 25
12 14 15 2 100 25
14 17 18 2 100 25
17 19 20 2 100 25
19 21 22 2 100 25
21 23 24 2 100 25
23 26 27 2 100 25
28 29 30 2 100 25
29 31 32 2 100 25
31 33 34 2 100 25
33 35 36 2 100 25

; SC-BB-BB and BB-BB-SC scFix
 1  2  3 10 100 15 ; BB-BB-SC
 3  2  5 10 100 15 ; SC-BB-BB
 2  5  6 10 100 15 ; BB-BB-SC
 6  5  7 10 100 15 ; SC-BB-BB
 7  8  9 10 100 15 ; BB-BB-SC
 9  8 10 10 100 15 ; SC-BB-BB
 8 10 11 10 100 15 ; BB-BB-SC
11 10 12 10 100 15 ; SC-BB-BB
10 12 13 10 100 15 ; BB-BB-SC
13 12 14 10 100 15 ; SC-BB-BB
12 14 15 10 100 15 ; BB-BB-SC
15 14 17 10 100 15 ; SC-BB-BB
14 17 18 10 100 15 ; BB-BB-SC
18 17 19 10 100 15 ; SC-BB-BB
17 19 20 10 100 15 ; BB-BB-SC
20 19 21 10 100 15 ; SC-BB-BB
19 21 22 10 100 15 ; BB-BB-SC
22 21 23 10 100 15 ; SC-BB-BB
21 23 24 10 100 15 ; BB-BB-SC
24 23 26 10 100 15 ; SC-BB-BB
23 26 27 10 100 15 ; BB-BB-SC
27 26 28 10 100 15 ; SC-BB-BB
28 29 30 10 100 15 ; BB-BB-SC
30 29 31 10 100 15 ; SC-BB-BB
29 31 32 10 100 15 ; BB-BB-SC
32 31 33 10 100 15 ; SC-BB-BB
31 33 34 10 100 15 ; BB-BB-SC
34 33 35 10 100 15 ; SC-BB-BB
33 35 36 10 100 15 ; BB-BB-SC

; Side chain angles
 2  3  4 2 180.000 25.0
14 15 16 2 180.000 25.0
23 24 25 2 180.000 25.0

[ dihedrals ]
 7  8 10 12 1 -120 400 1
 8 10 12 14 1 -120 400 1
10 12 14 17 1 -120 400 1
12 14 17 19 1 -120 400 1
14 17 19 21 1 -120 400 1
17 19 21 23 1 -120 400 1
19 21 23 26 1 -120 400 1
21 23 26 28 1 -120 400 1
23 26 28 29 1 -120 400 1
26 28 29 31 1 -120 400 1
28 29 31 33 1 -120 400 1

; SC-BB-BB-SC scFix
 3  2  5  6 1 -154.0 75 1 ; SC-BB-BB-SC
 5  7  8  9 1 96.4 75 1 ; BB-BB-BB-SC
 6  5  7  8 1 61.8 75 1 ; SC-BB-BB-BB
 9  8 10 11 1 160.7 75 1 ; SC-BB-BB-SC
11 10 12 13 1 -149.4 75 1 ; SC-BB-BB-SC
13 12 14 15 1 -135.1 75 1 ; SC-BB-BB-SC
15 14 17 18 1 -126.0 75 1 ; SC-BB-BB-SC
18 17 19 20 1 -135.1 75 1 ; SC-BB-BB-SC
20 19 21 22 1 -142.0 75 1 ; SC-BB-BB-SC
22 21 23 24 1 -145.0 75 1 ; SC-BB-BB-SC
24 23 26 27 1 -130.8 75 1 ; SC-BB-BB-SC
26 28 29 30 1 94.2 75 1 ; BB-BB-BB-SC
27 26 28 29 1 8.1 75 1 ; SC-BB-BB-BB
30 29 31 32 1 -146.2 75 1 ; SC-BB-BB-SC
32 31 33 34 1 -122.3 75 1 ; SC-BB-BB-SC
34 33 35 36 1 -156.1 75 1 ; SC-BB-BB-SC

