; This file was generated using the following command:
; /opt/conda/bin/martinize2 -f /work/simulations/solvia_1962_run_1/colabfold/best_model.pdb -ff martini3001 -x /work/simulations/solvia_1962_run_1/coarse_grain/SOLVIA_1962_cg.pdb -o /work/simulations/solvia_1962_run_1/coarse_grain/SOLVIA_1962.itp -name SOLVIA_1962 -cter NH2-ter -maxwarn 1 -cys auto -dssp -p backbone -pf 1000
; martinize with vermouth 0.15.0
; The following sequence of secondary structure 
; was used for the full system:
; CCCCCTTCSCCCCCCCCC

; Please cite the following papers:
; McGibbon, R T; Beauchamp, K A; Harrigan, M P; Klein, C; Swails, J M; Hernández, C X; Schwantes, C R; Wang, L; Lane, T J; Pande, V S;  Biophysical Journal 2015; 10.1016/j.bpj.2015.08.015
; Souza, P C T; Alessandri, R; Barnoud, J; Thallmair, S; Faustino, I; Grünewald, F; Patmanidis, I; Abdizadeh, H; Bruininks, B M H; Wassenaar, T A; Kroon, P C; Melcr, J; Nieto, V; Corradi, V; Khan, H M; Domański, J; Javanainen, M; Martinez-Seara, H; Reuter, N; Best, R B; Vattulainen, I; Monticelli, L; Periole, X; Tieleman, D P; de Vries, A H; Marrink, S J;  Nature Methods 2021; 10.1038/s41592-021-01098-3
; Kroon, P C; Grunewald, F; Barnoud, J; van Tilburg, M; Souza, P C; Wassenaar, T A; Marrink, S J;  elife 2024; 10.7554/elife.90627.2

#ifndef POSRES_FC
#define POSRES_FC 1000.0
#endif

[ moleculetype ]
SOLVIA_1962 1

[ atoms ]
 1 Q5    1 SER BB   1    1 
 2 TP1   1 SER SC1  2  0.0 
 3 P2    2 LYS BB   3  0.0 
 4 SC3   2 LYS SC1  4  0.0 
 5 SQ4p  2 LYS SC2  5  1.0 
 6 P2    3 LYS BB   6  0.0 
 7 SC3   3 LYS SC1  7  0.0 
 8 SQ4p  3 LYS SC2  8  1.0 
 9 P2    4 SER BB   9  0.0 
10 TP1   4 SER SC1 10  0.0 
11 P2    5 LYS BB  11  0.0 
12 SC3   5 LYS SC1 12  0.0 
13 SQ4p  5 LYS SC2 13  1.0 
14 SP2a  6 PRO BB  14  0.0 
15 SC3   6 PRO SC1 15  0.0 
16 SP1   7 GLY BB  16  0.0 
17 P2    8 ASP BB  17  0.0 
18 SQ5n  8 ASP SC1 18 -1.0 
19 SP1   9 GLY BB  19  0.0 
20 P2   10 LYS BB  20  0.0 
21 SC3  10 LYS SC1 21  0.0 
22 SQ4p 10 LYS SC2 22  1.0 
23 P2   11 PHE BB  23  0.0 
24 SC4  11 PHE SC1 24  0.0 
25 TC5  11 PHE SC2 25  0.0 
26 TC5  11 PHE SC3 26  0.0 
27 SP1  12 GLY BB  27  0.0 
28 P2   13 ARG BB  28  0.0 
29 SC3  13 ARG SC1 29  0.0 
30 SQ3p 13 ARG SC2 30  1.0 
31 SP1  14 GLY BB  31  0.0 
32 SP2  15 VAL BB  32  0.0 
33 SC3  15 VAL SC1 33  0.0 
34 P2   16 LYS BB  34  0.0 
35 SC3  16 LYS SC1 35  0.0 
36 SQ4p 16 LYS SC2 36  1.0 
37 P2   17 ARG BB  37  0.0 
38 SC3  17 ARG SC1 38  0.0 
39 SQ3p 17 ARG SC2 39  1.0 
40 P6   18 GLY BB  40    0 

[ position_restraints ]
#ifdef POSRES
 1 1 POSRES_FC POSRES_FC POSRES_FC
 3 1 POSRES_FC POSRES_FC POSRES_FC
 6 1 POSRES_FC POSRES_FC POSRES_FC
 9 1 POSRES_FC POSRES_FC POSRES_FC
11 1 POSRES_FC POSRES_FC POSRES_FC
14 1 POSRES_FC POSRES_FC POSRES_FC
16 1 POSRES_FC POSRES_FC POSRES_FC
17 1 POSRES_FC POSRES_FC POSRES_FC
19 1 POSRES_FC POSRES_FC POSRES_FC
20 1 POSRES_FC POSRES_FC POSRES_FC
23 1 POSRES_FC POSRES_FC POSRES_FC
27 1 POSRES_FC POSRES_FC POSRES_FC
28 1 POSRES_FC POSRES_FC POSRES_FC
31 1 POSRES_FC POSRES_FC POSRES_FC
32 1 POSRES_FC POSRES_FC POSRES_FC
34 1 POSRES_FC POSRES_FC POSRES_FC
37 1 POSRES_FC POSRES_FC POSRES_FC
40 1 POSRES_FC POSRES_FC POSRES_FC
#endif

[ bonds ]
; Backbone bonds
 1  3 1 0.350 4000
 3  6 1 0.350 4000
 6  9 1 0.350 4000
 9 11 1 0.350 4000
11 14 1 0.350 4000
14 16 1 0.350 4000
16 17 1 0.350 4000
17 19 1 0.350 4000
19 20 1 0.350 4000
20 23 1 0.350 4000
23 27 1 0.350 4000
27 28 1 0.350 4000
28 31 1 0.350 4000
31 32 1 0.350 4000
32 34 1 0.350 4000
34 37 1 0.350 4000
37 40 1 0.350 4000

; Side chain bonds
 1  2 1 0.287 7500
 3  4 1 0.330 5000
 4  5 1 0.360 5000
 6  7 1 0.330 5000
 7  8 1 0.360 5000
 9 10 1 0.287 7500
11 12 1 0.330 5000
12 13 1 0.360 5000
14 15 1 0.330 7500
17 18 1 0.352 7500
20 21 1 0.330 5000
21 22 1 0.360 5000
23 24 1 0.325 7500
28 29 1 0.330 5000
29 30 1 0.380 5000
34 35 1 0.330 5000
35 36 1 0.360 5000
37 38 1 0.330 5000
38 39 1 0.380 5000

#ifdef FLEXIBLE
; Side chain bonds
24 25 1 0.340 1000000
24 26 1 0.340 1000000
25 26 1 0.290 1000000
32 33 1 0.292 1000000
#endif

[ constraints ]
#ifndef FLEXIBLE
; Side chain bonds
24 25 1 0.340
24 26 1 0.340
25 26 1 0.290
32 33 1 0.292
#endif

[ angles ]
; BBB angles
 1  3  6 10 127 20
 3  6  9 10 127 20
 6  9 11 10 127 20
 9 11 14 10 127 20
11 14 16 10 100 20
14 16 17 10 100 20
16 17 19 10 100 20
17 19 20 10 127 20
19 20 23 10 127 20
20 23 27 10 127 20
23 27 28 10 127 20
27 28 31 10 127 20
28 31 32 10 127 20
31 32 34 10 127 20
32 34 37 10 127 20
34 37 40 10 127 20

; BBS angles regular martini
 1  3  4 2 100 25
 3  6  7 2 100 25
 6  9 10 2 100 25
 9 11 12 2 100 25
11 14 15 2 100 25
16 17 18 2 100 25
19 20 21 2 100 25
20 23 24 2 100 25
27 28 29 2 100 25
31 32 33 2 100 25
32 34 35 2 100 25
34 37 38 2 100 25

; First SBB regular martini
 2  1  3 2 100 25

; SC-BB-BB and BB-BB-SC scFix
 2  1  3 10 100 15 ; SC-BB-BB
 1  3  4 10 100 15 ; BB-BB-SC
 4  3  6 10 100 15 ; SC-BB-BB
 3  6  7 10 100 15 ; BB-BB-SC
 7  6  9 10 100 15 ; SC-BB-BB
 6  9 10 10 100 15 ; BB-BB-SC
10  9 11 10 100 15 ; SC-BB-BB
 9 11 12 10 100 15 ; BB-BB-SC
12 11 14 10 100 15 ; SC-BB-BB
11 14 15 10 100 15 ; BB-BB-SC
15 14 16 10 100 15 ; SC-BB-BB
16 17 18 10 100 15 ; BB-BB-SC
18 17 19 10 100 15 ; SC-BB-BB
19 20 21 10 100 15 ; BB-BB-SC
21 20 23 10 100 15 ; SC-BB-BB
20 23 24 10 100 15 ; BB-BB-SC
24 23 27 10 100 15 ; SC-BB-BB
27 28 29 10 100 15 ; BB-BB-SC
29 28 31 10 100 15 ; SC-BB-BB
31 32 33 10 100 15 ; BB-BB-SC
33 32 34 10 100 15 ; SC-BB-BB
32 34 35 10 100 15 ; BB-BB-SC
35 34 37 10 100 15 ; SC-BB-BB
34 37 38 10 100 15 ; BB-BB-SC
38 37 40 10 100 15 ; SC-BB-BB

; Side chain angles
 3  4  5 2 180.000 25.0
 6  7  8 2 180.000 25.0
11 12 13 2 180.000 25.0
20 21 22 2 180.000 25.0
23 24 25 2 120.000 50.0
23 24 26 2 120.000 50.0
28 29 30 2 180.000 25.0
34 35 36 2 180.000 25.0
37 38 39 2 180.000 25.0

[ dihedrals ]
; SC-BB-BB-SC scFix
 2  1  3  4 1 4.5 75 1 ; SC-BB-BB-SC
 4  3  6  7 1 28.6 75 1 ; SC-BB-BB-SC
 7  6  9 10 1 68.8 75 1 ; SC-BB-BB-SC
10  9 11 12 1 38.2 75 1 ; SC-BB-BB-SC
12 11 14 15 1 81.7 75 1 ; SC-BB-BB-SC
14 16 17 18 1 118.0 75 1 ; BB-BB-BB-SC
15 14 16 17 1 96.4 75 1 ; SC-BB-BB-BB
17 19 20 21 1 -146.8 75 1 ; BB-BB-BB-SC
18 17 19 20 1 -115.0 75 1 ; SC-BB-BB-BB
21 20 23 24 1 -65.9 75 1 ; SC-BB-BB-SC
23 27 28 29 1 -112.5 75 1 ; BB-BB-BB-SC
24 23 27 28 1 -54.7 75 1 ; SC-BB-BB-BB
28 31 32 33 1 -156.8 75 1 ; BB-BB-BB-SC
29 28 31 32 1 -120.2 75 1 ; SC-BB-BB-BB
33 32 34 35 1 44.6 75 1 ; SC-BB-BB-SC
35 34 37 38 1 21.4 75 1 ; SC-BB-BB-SC

[ exclusions ]
23 24 25 26 
24 25 26 
25 26 

