; This file was generated using the following command:
; /opt/conda/bin/martinize2 -f /work/simulations/solvia_482_run_1/colabfold/best_model.pdb -ff martini3001 -x /work/simulations/solvia_482_run_1/coarse_grain/SOLVIA_482_cg.pdb -o /work/simulations/solvia_482_run_1/coarse_grain/SOLVIA_482.itp -name SOLVIA_482 -cter NH2-ter -maxwarn 1 -cys auto -dssp -p backbone -pf 1000
; martinize with vermouth 0.14.0
; The following sequence of secondary structure 
; was used for the full system:
; CHHHHHHHHHHHHHHHHHHHSHHHHC

; Please cite the following papers:
; Kroon, P C; Grunewald, F; Barnoud, J; van Tilburg, M; Souza, P C; Wassenaar, T A; Marrink, S J;  elife 2024; 10.7554/elife.90627.2
; Souza, P C T; Alessandri, R; Barnoud, J; Thallmair, S; Faustino, I; Grünewald, F; Patmanidis, I; Abdizadeh, H; Bruininks, B M H; Wassenaar, T A; Kroon, P C; Melcr, J; Nieto, V; Corradi, V; Khan, H M; Domański, J; Javanainen, M; Martinez-Seara, H; Reuter, N; Best, R B; Vattulainen, I; Monticelli, L; Periole, X; Tieleman, D P; de Vries, A H; Marrink, S J;  Nature Methods 2021; 10.1038/s41592-021-01098-3
; McGibbon, R T; Beauchamp, K A; Harrigan, M P; Klein, C; Swails, J M; Hernández, C X; Schwantes, C R; Wang, L; Lane, T J; Pande, V S;  Biophysical Journal 2015; 10.1016/j.bpj.2015.08.015

#ifndef POSRES_FC
#define POSRES_FC 1000.0
#endif

[ moleculetype ]
SOLVIA_482 1

[ atoms ]
 1 Q5    1 GLY BB   1   1 
 2 P2    2 PHE BB   2 0.0 
 3 SC4   2 PHE SC1  3 0.0 
 4 TC5   2 PHE SC2  4 0.0 
 5 TC5   2 PHE SC3  5 0.0 
 6 SP1   3 GLY BB   6 0.0 
 7 P2    4 SER BB   7 0.0 
 8 TP1   4 SER SC1  8 0.0 
 9 P2    5 PHE BB   9 0.0 
10 SC4   5 PHE SC1 10 0.0 
11 TC5   5 PHE SC2 11 0.0 
12 TC5   5 PHE SC3 12 0.0 
13 P2    6 LEU BB  13 0.0 
14 SC2   6 LEU SC1 14 0.0 
15 SP1   7 GLY BB  15 0.0 
16 P2    8 SER BB  16 0.0 
17 TP1   8 SER SC1 17 0.0 
18 P2    9 LEU BB  18 0.0 
19 SC2   9 LEU SC1 19 0.0 
20 P2   10 PHE BB  20 0.0 
21 SC4  10 PHE SC1 21 0.0 
22 TC5  10 PHE SC2 22 0.0 
23 TC5  10 PHE SC3 23 0.0 
24 P2   11 LYS BB  24 0.0 
25 SC3  11 LYS SC1 25 0.0 
26 SQ4p 11 LYS SC2 26 1.0 
27 P2   12 THR BB  27 0.0 
28 SP1  12 THR SC1 28 0.0 
29 SP1  13 GLY BB  29 0.0 
30 P2   14 LEU BB  30 0.0 
31 SC2  14 LEU SC1 31 0.0 
32 P2   15 LYS BB  32 0.0 
33 SC3  15 LYS SC1 33 0.0 
34 SQ4p 15 LYS SC2 34 1.0 
35 P2   16 ILE BB  35 0.0 
36 SC2  16 ILE SC1 36 0.0 
37 P2   17 ILE BB  37 0.0 
38 SC2  17 ILE SC1 38 0.0 
39 SP2a 18 PRO BB  39 0.0 
40 SC3  18 PRO SC1 40 0.0 
41 P2   19 LYS BB  41 0.0 
42 SC3  19 LYS SC1 42 0.0 
43 SQ4p 19 LYS SC2 43 1.0 
44 P2   20 LEU BB  44 0.0 
45 SC2  20 LEU SC1 45 0.0 
46 P2   21 LEU BB  46 0.0 
47 SC2  21 LEU SC1 47 0.0 
48 SP2a 22 PRO BB  48 0.0 
49 SC3  22 PRO SC1 49 0.0 
50 P2   23 SER BB  50 0.0 
51 TP1  23 SER SC1 51 0.0 
52 P2   24 ILE BB  52 0.0 
53 SC2  24 ILE SC1 53 0.0 
54 P2   25 GLN BB  54 0.0 
55 P5   25 GLN SC1 55 0.0 
56 P6   26 GLN BB  56   0 
57 P5   26 GLN SC1 57 0.0 

[ position_restraints ]
#ifdef POSRES
 1 1 POSRES_FC POSRES_FC POSRES_FC
 2 1 POSRES_FC POSRES_FC POSRES_FC
 6 1 POSRES_FC POSRES_FC POSRES_FC
 7 1 POSRES_FC POSRES_FC POSRES_FC
 9 1 POSRES_FC POSRES_FC POSRES_FC
13 1 POSRES_FC POSRES_FC POSRES_FC
15 1 POSRES_FC POSRES_FC POSRES_FC
16 1 POSRES_FC POSRES_FC POSRES_FC
18 1 POSRES_FC POSRES_FC POSRES_FC
20 1 POSRES_FC POSRES_FC POSRES_FC
24 1 POSRES_FC POSRES_FC POSRES_FC
27 1 POSRES_FC POSRES_FC POSRES_FC
29 1 POSRES_FC POSRES_FC POSRES_FC
30 1 POSRES_FC POSRES_FC POSRES_FC
32 1 POSRES_FC POSRES_FC POSRES_FC
35 1 POSRES_FC POSRES_FC POSRES_FC
37 1 POSRES_FC POSRES_FC POSRES_FC
39 1 POSRES_FC POSRES_FC POSRES_FC
41 1 POSRES_FC POSRES_FC POSRES_FC
44 1 POSRES_FC POSRES_FC POSRES_FC
46 1 POSRES_FC POSRES_FC POSRES_FC
48 1 POSRES_FC POSRES_FC POSRES_FC
50 1 POSRES_FC POSRES_FC POSRES_FC
52 1 POSRES_FC POSRES_FC POSRES_FC
54 1 POSRES_FC POSRES_FC POSRES_FC
56 1 POSRES_FC POSRES_FC POSRES_FC
#endif

[ bonds ]
; Side chain bonds
 2  3 1 0.325 7500
 7  8 1 0.287 7500
 9 10 1 0.325 7500
13 14 1 0.363 7500
16 17 1 0.287 7500
18 19 1 0.363 7500
20 21 1 0.325 7500
24 25 1 0.330 5000
25 26 1 0.360 5000
30 31 1 0.363 7500
32 33 1 0.330 5000
33 34 1 0.360 5000
39 40 1 0.330 7500
41 42 1 0.330 5000
42 43 1 0.360 5000
44 45 1 0.363 7500
46 47 1 0.363 7500
48 49 1 0.330 7500
50 51 1 0.287 7500
54 55 1 0.400 5000
56 57 1 0.400 5000

#ifdef FLEXIBLE
; Side chain bonds
 3  4 1 0.340 1000000
 3  5 1 0.340 1000000
 4  5 1 0.290 1000000
10 11 1 0.340 1000000
10 12 1 0.340 1000000
11 12 1 0.290 1000000
21 22 1 0.340 1000000
21 23 1 0.340 1000000
22 23 1 0.290 1000000
27 28 1 0.305 1000000
35 36 1 0.341 1000000
37 38 1 0.341 1000000
52 53 1 0.341 1000000
#endif

[ constraints ]
; Backbone bonds
 1  2 1 0.33
 2  6 1 0.310
 6  7 1 0.310
 7  9 1 0.310
 9 13 1 0.310
13 15 1 0.310
15 16 1 0.310
16 18 1 0.310
18 20 1 0.310
20 24 1 0.310
24 27 1 0.310
27 29 1 0.310
29 30 1 0.310
30 32 1 0.310
32 35 1 0.310
35 37 1 0.310
37 39 1 0.310
39 41 1 0.310
41 44 1 0.310
44 46 1 0.33
46 48 1 0.33
48 50 1 0.310
50 52 1 0.310
52 54 1 0.310
54 56 1 0.33

#ifndef FLEXIBLE
; Side chain bonds
 3  4 1 0.340
 3  5 1 0.340
 4  5 1 0.290
10 11 1 0.340
10 12 1 0.340
11 12 1 0.290
21 22 1 0.340
21 23 1 0.340
22 23 1 0.290
27 28 1 0.305
35 36 1 0.341
37 38 1 0.341
52 53 1 0.341
#endif

[ angles ]
; BBB angles
 1  2  6 10 127 20
 2  6  7 2 96 700
 6  7  9 2 96 700
 7  9 13 2 96 700
 9 13 15 2 96 700
13 15 16 2 96 700
15 16 18 2 96 700
16 18 20 2 96 700
18 20 24 2 96 700
20 24 27 2 96 700
24 27 29 2 96 700
27 29 30 2 96 700
29 30 32 2 96 700
30 32 35 2 96 700
32 35 37 2 96 700
35 37 39 10 98 100
37 39 41 10 98 100
39 41 44 10 98 100
41 44 46 10 130 20
44 46 48 10 130 20
46 48 50 10 98 100
48 50 52 10 98 100
50 52 54 2 96 700
52 54 56 10 127 20

; BBS angles regular martini
 1  2  3 2 100 25
 6  7  8 2 100 25
 7  9 10 2 100 25
 9 13 14 2 100 25
15 16 17 2 100 25
16 18 19 2 100 25
18 20 21 2 100 25
20 24 25 2 100 25
24 27 28 2 100 25
29 30 31 2 100 25
30 32 33 2 100 25
32 35 36 2 100 25
35 37 38 2 100 25
37 39 40 2 100 25
39 41 42 2 100 25
41 44 45 2 100 25
44 46 47 2 100 25
46 48 49 2 100 25
48 50 51 2 100 25
50 52 53 2 100 25
52 54 55 2 100 25
54 56 57 2 100 25

; SC-BB-BB and BB-BB-SC scFix
 3  2  6 10 100 15 ; SC-BB-BB
 8  7  9 10 100 15 ; SC-BB-BB
10  9 13 10 100 15 ; SC-BB-BB
14 13 15 10 100 15 ; SC-BB-BB
17 16 18 10 100 15 ; SC-BB-BB
19 18 20 10 100 15 ; SC-BB-BB
21 20 24 10 100 15 ; SC-BB-BB
25 24 27 10 100 15 ; SC-BB-BB
28 27 29 10 100 15 ; SC-BB-BB
31 30 32 10 100 15 ; SC-BB-BB
33 32 35 10 100 15 ; SC-BB-BB
36 35 37 10 100 15 ; SC-BB-BB
38 37 39 10 100 15 ; SC-BB-BB
40 39 41 10 100 15 ; SC-BB-BB
42 41 44 10 100 15 ; SC-BB-BB
45 44 46 10 100 15 ; SC-BB-BB
47 46 48 10 100 15 ; SC-BB-BB
49 48 50 10 100 15 ; SC-BB-BB
51 50 52 10 100 15 ; SC-BB-BB
53 52 54 10 100 15 ; SC-BB-BB
55 54 56 10 100 15 ; SC-BB-BB
 1  2  3 10 100 15 ; BB-BB-SC
 6  7  8 10 100 15 ; BB-BB-SC
 7  9 10 10 100 15 ; BB-BB-SC
 9 13 14 10 100 15 ; BB-BB-SC
15 16 17 10 100 15 ; BB-BB-SC
16 18 19 10 100 15 ; BB-BB-SC
18 20 21 10 100 15 ; BB-BB-SC
20 24 25 10 100 15 ; BB-BB-SC
24 27 28 10 100 15 ; BB-BB-SC
29 30 31 10 100 15 ; BB-BB-SC
30 32 33 10 100 15 ; BB-BB-SC
32 35 36 10 100 15 ; BB-BB-SC
35 37 38 10 100 15 ; BB-BB-SC
37 39 40 10 100 15 ; BB-BB-SC
39 41 42 10 100 15 ; BB-BB-SC
41 44 45 10 100 15 ; BB-BB-SC
44 46 47 10 100 15 ; BB-BB-SC
46 48 49 10 100 15 ; BB-BB-SC
48 50 51 10 100 15 ; BB-BB-SC
50 52 53 10 100 15 ; BB-BB-SC
52 54 55 10 100 15 ; BB-BB-SC
54 56 57 10 100 15 ; BB-BB-SC

; Side chain angles
 2  3  4 2 120.000 50.0
 2  3  5 2 120.000 50.0
 9 10 11 2 120.000 50.0
 9 10 12 2 120.000 50.0
20 21 22 2 120.000 50.0
20 21 23 2 120.000 50.0
24 25 26 2 180.000 25.0
32 33 34 2 180.000 25.0
41 42 43 2 180.000 25.0

[ dihedrals ]
 2  6  7  9 1 -120 400 1
 6  7  9 13 1 -120 400 1
 7  9 13 15 1 -120 400 1
 9 13 15 16 1 -120 400 1
13 15 16 18 1 -120 400 1
15 16 18 20 1 -120 400 1
16 18 20 24 1 -120 400 1
18 20 24 27 1 -120 400 1
20 24 27 29 1 -120 400 1
24 27 29 30 1 -120 400 1
27 29 30 32 1 -120 400 1
29 30 32 35 1 -120 400 1
30 32 35 37 1 -120 400 1
32 35 37 39 1 -120 400 1
35 37 39 41 1 -120 400 1
37 39 41 44 1 -120 400 1
48 50 52 54 1 -120 400 1

; SC-BB-BB-SC scFix
 8  7  9 10 1 -152.2 75 1 ; SC-BB-BB-SC
10  9 13 14 1 -135.7 75 1 ; SC-BB-BB-SC
17 16 18 19 1 -131.8 75 1 ; SC-BB-BB-SC
19 18 20 21 1 -155.6 75 1 ; SC-BB-BB-SC
21 20 24 25 1 -134.8 75 1 ; SC-BB-BB-SC
25 24 27 28 1 -134.1 75 1 ; SC-BB-BB-SC
31 30 32 33 1 -108.3 75 1 ; SC-BB-BB-SC
33 32 35 36 1 -131.0 75 1 ; SC-BB-BB-SC
36 35 37 38 1 -138.0 75 1 ; SC-BB-BB-SC
38 37 39 40 1 -113.2 75 1 ; SC-BB-BB-SC
40 39 41 42 1 162.6 75 1 ; SC-BB-BB-SC
42 41 44 45 1 -167.5 75 1 ; SC-BB-BB-SC
45 44 46 47 1 -141.0 75 1 ; SC-BB-BB-SC
47 46 48 49 1 -110.0 75 1 ; SC-BB-BB-SC
49 48 50 51 1 -161.4 75 1 ; SC-BB-BB-SC
51 50 52 53 1 -147.4 75 1 ; SC-BB-BB-SC
53 52 54 55 1 -165.5 75 1 ; SC-BB-BB-SC
55 54 56 57 1 -103.0 75 1 ; SC-BB-BB-SC
 2  6  7  8 1 89.5 75 1 ; BB-BB-BB-SC
 3  2  6  7 1 36.8 75 1 ; SC-BB-BB-BB
13 15 16 17 1 90.8 75 1 ; BB-BB-BB-SC
14 13 15 16 1 7.8 75 1 ; SC-BB-BB-BB
27 29 30 31 1 82.5 75 1 ; BB-BB-BB-SC
28 27 29 30 1 2.9 75 1 ; SC-BB-BB-BB

[ exclusions ]
 2  3  4  5 
 3  4  5 
 4  5 
 9 10 11 12 
10 11 12 
11 12 
20 21 22 23 
21 22 23 
22 23 

