; This file was generated using the following command:
; /opt/conda/bin/martinize2 -f /work/simulations/solvia_1564_run_1/colabfold/best_model.pdb -ff martini3001 -x /work/simulations/solvia_1564_run_1/coarse_grain/SOLVIA_1564_cg.pdb -o /work/simulations/solvia_1564_run_1/coarse_grain/SOLVIA_1564.itp -name SOLVIA_1564 -cter NH2-ter -maxwarn 1 -cys auto -dssp -p backbone -pf 1000
; martinize with vermouth 0.15.0
; The following sequence of secondary structure 
; was used for the full system:
; CEEEEETTSSSSCEEEEECCC

; Please cite the following papers:
; Souza, P C T; Alessandri, R; Barnoud, J; Thallmair, S; Faustino, I; Grünewald, F; Patmanidis, I; Abdizadeh, H; Bruininks, B M H; Wassenaar, T A; Kroon, P C; Melcr, J; Nieto, V; Corradi, V; Khan, H M; Domański, J; Javanainen, M; Martinez-Seara, H; Reuter, N; Best, R B; Vattulainen, I; Monticelli, L; Periole, X; Tieleman, D P; de Vries, A H; Marrink, S J;  Nature Methods 2021; 10.1038/s41592-021-01098-3
; Kroon, P C; Grunewald, F; Barnoud, J; van Tilburg, M; Souza, P C; Wassenaar, T A; Marrink, S J;  elife 2024; 10.7554/elife.90627.2
; McGibbon, R T; Beauchamp, K A; Harrigan, M P; Klein, C; Swails, J M; Hernández, C X; Schwantes, C R; Wang, L; Lane, T J; Pande, V S;  Biophysical Journal 2015; 10.1016/j.bpj.2015.08.015

#ifndef POSRES_FC
#define POSRES_FC 1000.0
#endif

[ moleculetype ]
SOLVIA_1564 1

[ atoms ]
 1 P2    1 CYS BB   1  0.0     
 2 TC6   1 CYS SC1  2  0.0     
 3 P2    2 LEU BB   3  0.0     
 4 SC2   2 LEU SC1  4  0.0     
 5 SP1   3 GLY BB   5  0.0     
 6 SP2   4 VAL BB   6  0.0     
 7 SC3   4 VAL SC1  7  0.0     
 8 SP1   5 GLY BB   8  0.0     
 9 P2    6 SER BB   9  0.0     
10 TP1   6 SER SC1 10  0.0     
11 P2    7 CYS BB  11  0.0     
12 TC6   7 CYS SC1 12  0.0     
13 P2    8 ASN BB  13  0.0     
14 SP5   8 ASN SC1 14  0.0     
15 P2    9 ASP BB  15  0.0     
16 SQ5n  9 ASP SC1 16 -1.0     
17 P2   10 PHE BB  17  0.0     
18 SC4  10 PHE SC1 18  0.0     
19 TC5  10 PHE SC2 19  0.0     
20 TC5  10 PHE SC3 20  0.0     
21 SP2  11 ALA BB  21  0.0     
22 TC3  11 ALA SC1 22  0.0     
23 SP1  12 GLY BB  23  0.0     
24 P2   13 CYS BB  24  0.0     
25 TC6  13 CYS SC1 25  0.0     
26 SP1  14 GLY BB  26  0.0     
27 P2   15 TYR BB  27  0.0     
28 TC4  15 TYR SC1 28  0.0     
29 TC5  15 TYR SC2 29  0.0     
30 TC5  15 TYR SC3 30  0.0     
31 TN6  15 TYR SC4 31  0.0     
32 SP2  16 ALA BB  32  0.0     
33 TC3  16 ALA SC1 33  0.0     
34 P2   17 ILE BB  34  0.0     
35 SC2  17 ILE SC1 35  0.0     
36 SP2  18 VAL BB  36  0.0     
37 SC3  18 VAL SC1 37  0.0     
38 P2   19 CYS BB  38  0.0     
39 TC6  19 CYS SC1 39  0.0     
40 P2   20 PHE BB  40  0.0     
41 SC4  20 PHE SC1 41  0.0     
42 TC5  20 PHE SC2 42  0.0     
43 TC5  20 PHE SC3 43  0.0     
44 P6   21 TRP BB  44    0     
45 TC4  21 TRP SC1 45  0.0 36.0
46 TN6d 21 TRP SC2 46  0.0 36.0
47 TC5  21 TRP SC3 47  0.0  0.0
48 TC5  21 TRP SC4 48  0.0 36.0
49 TC5  21 TRP SC5 49  0.0 36.0

[ position_restraints ]
#ifdef POSRES
 1 1 POSRES_FC POSRES_FC POSRES_FC
 3 1 POSRES_FC POSRES_FC POSRES_FC
 5 1 POSRES_FC POSRES_FC POSRES_FC
 6 1 POSRES_FC POSRES_FC POSRES_FC
 8 1 POSRES_FC POSRES_FC POSRES_FC
 9 1 POSRES_FC POSRES_FC POSRES_FC
11 1 POSRES_FC POSRES_FC POSRES_FC
13 1 POSRES_FC POSRES_FC POSRES_FC
15 1 POSRES_FC POSRES_FC POSRES_FC
17 1 POSRES_FC POSRES_FC POSRES_FC
21 1 POSRES_FC POSRES_FC POSRES_FC
23 1 POSRES_FC POSRES_FC POSRES_FC
24 1 POSRES_FC POSRES_FC POSRES_FC
26 1 POSRES_FC POSRES_FC POSRES_FC
27 1 POSRES_FC POSRES_FC POSRES_FC
32 1 POSRES_FC POSRES_FC POSRES_FC
34 1 POSRES_FC POSRES_FC POSRES_FC
36 1 POSRES_FC POSRES_FC POSRES_FC
38 1 POSRES_FC POSRES_FC POSRES_FC
40 1 POSRES_FC POSRES_FC POSRES_FC
44 1 POSRES_FC POSRES_FC POSRES_FC
#endif

[ bonds ]
; Backbone bonds
 1  3 1 0.350 4000
 3  5 1 0.350 4000
 5  6 1 0.350 4000
 6  8 1 0.350 4000
 8  9 1 0.350 4000
 9 11 1 0.350 4000
11 13 1 0.350 4000
13 15 1 0.350 4000
15 17 1 0.350 4000
17 21 1 0.350 4000
21 23 1 0.350 4000
23 24 1 0.350 4000
24 26 1 0.350 4000
26 27 1 0.350 4000
27 32 1 0.350 4000
32 34 1 0.350 4000
34 36 1 0.350 4000
36 38 1 0.350 4000
38 40 1 0.350 4000
40 44 1 0.350 4000

; Long elastic bonds for extended regions
 3  8 1 0.970 2500
 5  9 1 0.970 2500
26 34 1 0.970 2500
27 36 1 0.970 2500

; Short elastic bonds for extended regions
 3  6 1 0.640 2500
 5  8 1 0.640 2500
 6  9 1 0.640 2500
26 32 1 0.640 2500
27 34 1 0.640 2500
32 36 1 0.640 2500

; Side chain bonds
 1  2 1 0.341 7500
 3  4 1 0.363 7500
 9 10 1 0.287 7500
11 12 1 0.341 7500
13 14 1 0.352 5000
15 16 1 0.352 7500
17 18 1 0.325 7500
24 25 1 0.341 7500
27 28 1 0.325 5000
38 39 1 0.341 7500
40 41 1 0.325 7500
44 45 1 0.315 5000

#ifdef FLEXIBLE
; Side chain bonds
 6  7 1 0.292 1000000
18 19 1 0.340 1000000
18 20 1 0.340 1000000
19 20 1 0.290 1000000
21 22 1 0.270 1000000
28 29 1 0.300 1000000
28 30 1 0.300 1000000
29 30 1 0.300 1000000
29 31 1 0.285 1000000
30 31 1 0.285 1000000
32 33 1 0.270 1000000
34 35 1 0.341 1000000
36 37 1 0.292 1000000
41 42 1 0.340 1000000
41 43 1 0.340 1000000
42 43 1 0.290 1000000
45 46 1 0.335 1000000
45 48 1 0.404 1000000
46 48 1 0.470 1000000
46 49 1 0.412 1000000
48 49 1 0.293 1000000
#endif

[ constraints ]
 2 39 1 0.24 ; Disulfide bridge

#ifndef FLEXIBLE
; Side chain bonds
 6  7 1 0.292
18 19 1 0.340
18 20 1 0.340
19 20 1 0.290
21 22 1 0.270
28 29 1 0.300
28 30 1 0.300
29 30 1 0.300
29 31 1 0.285
30 31 1 0.285
32 33 1 0.270
34 35 1 0.341
36 37 1 0.292
41 42 1 0.340
41 43 1 0.340
42 43 1 0.290
45 46 1 0.335
45 48 1 0.404
46 48 1 0.470
46 49 1 0.412
48 49 1 0.293
#endif

[ angles ]
; BBB angles
 1  3  5 10 127 20
 3  5  6 10 134 25
 5  6  8 10 134 25
 6  8  9 10 134 25
 8  9 11 10 100 20
 9 11 13 10 100 20
11 13 15 10 100 20
13 15 17 10 100 20
15 17 21 10 130 20
17 21 23 10 130 20
21 23 24 10 127 20
23 24 26 10 127 20
24 26 27 10 127 20
26 27 32 10 134 25
27 32 34 10 134 25
32 34 36 10 134 25
34 36 38 10 127 20
36 38 40 10 127 20
38 40 44 10 127 20

; BBS angles regular martini
 1  3  4 2 100 25
 5  6  7 2 100 25
 8  9 10 2 100 25
 9 11 12 2 100 25
11 13 14 2 100 25
13 15 16 2 100 25
15 17 18 2 100 25
17 21 22 2 100 25
23 24 25 2 100 25
26 27 28 2 100 25
27 32 33 2 100 25
32 34 35 2 100 25
34 36 37 2 100 25
36 38 39 2 100 25
38 40 41 2 100 25
40 44 45 2 100 25

; First SBB regular martini
 2  1  3 2 100 25

; SC-BB-BB and BB-BB-SC scFix
 2  1  3 10 100 15 ; SC-BB-BB
 1  3  4 10 100 15 ; BB-BB-SC
 4  3  5 10 100 15 ; SC-BB-BB
 5  6  7 10 100 15 ; BB-BB-SC
 7  6  8 10 100 15 ; SC-BB-BB
 8  9 10 10 100 15 ; BB-BB-SC
10  9 11 10 100 15 ; SC-BB-BB
 9 11 12 10 100 15 ; BB-BB-SC
12 11 13 10 100 15 ; SC-BB-BB
11 13 14 10 100 15 ; BB-BB-SC
14 13 15 10 100 15 ; SC-BB-BB
13 15 16 10 100 15 ; BB-BB-SC
16 15 17 10 100 15 ; SC-BB-BB
15 17 18 10 100 15 ; BB-BB-SC
18 17 21 10 100 15 ; SC-BB-BB
17 21 22 10 100 15 ; BB-BB-SC
22 21 23 10 100 15 ; SC-BB-BB
23 24 25 10 100 15 ; BB-BB-SC
25 24 26 10 100 15 ; SC-BB-BB
26 27 28 10 100 15 ; BB-BB-SC
28 27 32 10 100 15 ; SC-BB-BB
27 32 33 10 100 15 ; BB-BB-SC
33 32 34 10 100 15 ; SC-BB-BB
32 34 35 10 100 15 ; BB-BB-SC
35 34 36 10 100 15 ; SC-BB-BB
34 36 37 10 100 15 ; BB-BB-SC
37 36 38 10 100 15 ; SC-BB-BB
36 38 39 10 100 15 ; BB-BB-SC
39 38 40 10 100 15 ; SC-BB-BB
38 40 41 10 100 15 ; BB-BB-SC
41 40 44 10 100 15 ; SC-BB-BB
40 44 45 10 100 15 ; BB-BB-SC

; Side chain angles
17 18 19 2 120.000 50.0
17 18 20 2 120.000 50.0
27 28 29 2 120.000 60.0
27 28 30 2 120.000 60.0
40 41 42 2 120.000 50.0
40 41 43 2 120.000 50.0
44 45 46 2 120.000 60.0
44 45 48 2 130.000 60.0

[ dihedrals ]
; SC-BB-BB-SC scFix
 2  1  3  4 1 30.4 75 1 ; SC-BB-BB-SC
 3  5  6  7 1 120.6 75 1 ; BB-BB-BB-SC
 4  3  5  6 1 -72.0 75 1 ; SC-BB-BB-BB
 6  8  9 10 1 104.1 75 1 ; BB-BB-BB-SC
 7  6  8  9 1 -90.5 75 1 ; SC-BB-BB-BB
10  9 11 12 1 76.1 75 1 ; SC-BB-BB-SC
12 11 13 14 1 177.9 75 1 ; SC-BB-BB-SC
14 13 15 16 1 -36.1 75 1 ; SC-BB-BB-SC
16 15 17 18 1 119.2 75 1 ; SC-BB-BB-SC
18 17 21 22 1 -149.5 75 1 ; SC-BB-BB-SC
21 23 24 25 1 -64.0 75 1 ; BB-BB-BB-SC
22 21 23 24 1 -82.7 75 1 ; SC-BB-BB-BB
24 26 27 28 1 145.2 75 1 ; BB-BB-BB-SC
25 24 26 27 1 -106.8 75 1 ; SC-BB-BB-BB
28 27 32 33 1 19.5 75 1 ; SC-BB-BB-SC
33 32 34 35 1 21.4 75 1 ; SC-BB-BB-SC
35 34 36 37 1 26.9 75 1 ; SC-BB-BB-SC
37 36 38 39 1 19.4 75 1 ; SC-BB-BB-SC
39 38 40 41 1 30.4 75 1 ; SC-BB-BB-SC
41 40 44 45 1 -172.0 75 1 ; SC-BB-BB-SC

[ exclusions ]
17 18 19 20 
18 19 20 
19 20 
27 28 29 30 31 
28 29 30 31 
29 30 31 
30 31 
40 41 42 43 
41 42 43 
42 43 
44 45 46 47 48 49 
45 46 47 48 49 
46 47 48 49 
47 48 49 
48 49 

[ dihedrals ]
31 29 30 28 2 180.0 50.0
49 48 46 45 2 180.0 100.0

[ virtual_sitesn ]
47 2 49 48 46 45

