; This file was generated using the following command:
; /opt/conda/bin/martinize2 -f /work/simulations/solvia_850_run_1/colabfold/best_model.pdb -ff martini3001 -x /work/simulations/solvia_850_run_1/coarse_grain/SOLVIA_850_cg.pdb -o /work/simulations/solvia_850_run_1/coarse_grain/SOLVIA_850.itp -name SOLVIA_850 -cter NH2-ter -maxwarn 1 -cys auto -dssp -p backbone -pf 1000
; martinize with vermouth 0.14.0
; The following sequence of secondary structure 
; was used for the full system:
; CHHHHHHHHHHHHHHHHHC

; Please cite the following papers:
; Kroon, P C; Grunewald, F; Barnoud, J; van Tilburg, M; Souza, P C; Wassenaar, T A; Marrink, S J;  elife 2024; 10.7554/elife.90627.2
; McGibbon, R T; Beauchamp, K A; Harrigan, M P; Klein, C; Swails, J M; Hernández, C X; Schwantes, C R; Wang, L; Lane, T J; Pande, V S;  Biophysical Journal 2015; 10.1016/j.bpj.2015.08.015
; Souza, P C T; Alessandri, R; Barnoud, J; Thallmair, S; Faustino, I; Grünewald, F; Patmanidis, I; Abdizadeh, H; Bruininks, B M H; Wassenaar, T A; Kroon, P C; Melcr, J; Nieto, V; Corradi, V; Khan, H M; Domański, J; Javanainen, M; Martinez-Seara, H; Reuter, N; Best, R B; Vattulainen, I; Monticelli, L; Periole, X; Tieleman, D P; de Vries, A H; Marrink, S J;  Nature Methods 2021; 10.1038/s41592-021-01098-3

#ifndef POSRES_FC
#define POSRES_FC 1000.0
#endif

[ moleculetype ]
SOLVIA_850 1

[ atoms ]
 1 Q5    1 LEU BB   1   1 
 2 SC2   1 LEU SC1  2 0.0 
 3 SP2a  2 PRO BB   3 0.0 
 4 SC3   2 PRO SC1  4 0.0 
 5 P2    3 PHE BB   5 0.0 
 6 SC4   3 PHE SC1  6 0.0 
 7 TC5   3 PHE SC2  7 0.0 
 8 TC5   3 PHE SC3  8 0.0 
 9 P2    4 PHE BB   9 0.0 
10 SC4   4 PHE SC1 10 0.0 
11 TC5   4 PHE SC2 11 0.0 
12 TC5   4 PHE SC3 12 0.0 
13 P2    5 LEU BB  13 0.0 
14 SC2   5 LEU SC1 14 0.0 
15 P2    6 LEU BB  15 0.0 
16 SC2   6 LEU SC1 16 0.0 
17 P2    7 SER BB  17 0.0 
18 TP1   7 SER SC1 18 0.0 
19 P2    8 LEU BB  19 0.0 
20 SC2   8 LEU SC1 20 0.0 
21 P2    9 ILE BB  21 0.0 
22 SC2   9 ILE SC1 22 0.0 
23 SP2a 10 PRO BB  23 0.0 
24 SC3  10 PRO SC1 24 0.0 
25 P2   11 SER BB  25 0.0 
26 TP1  11 SER SC1 26 0.0 
27 SP2  12 ALA BB  27 0.0 
28 TC3  12 ALA SC1 28 0.0 
29 P2   13 ILE BB  29 0.0 
30 SC2  13 ILE SC1 30 0.0 
31 P2   14 SER BB  31 0.0 
32 TP1  14 SER SC1 32 0.0 
33 SP2  15 ALA BB  33 0.0 
34 TC3  15 ALA SC1 34 0.0 
35 P2   16 ILE BB  35 0.0 
36 SC2  16 ILE SC1 36 0.0 
37 P2   17 LYS BB  37 0.0 
38 SC3  17 LYS SC1 38 0.0 
39 SQ4p 17 LYS SC2 39 1.0 
40 P2   18 LYS BB  40 0.0 
41 SC3  18 LYS SC1 41 0.0 
42 SQ4p 18 LYS SC2 42 1.0 
43 P6   19 ILE BB  43   0 
44 SC2  19 ILE SC1 44 0.0 

[ position_restraints ]
#ifdef POSRES
 1 1 POSRES_FC POSRES_FC POSRES_FC
 3 1 POSRES_FC POSRES_FC POSRES_FC
 5 1 POSRES_FC POSRES_FC POSRES_FC
 9 1 POSRES_FC POSRES_FC POSRES_FC
13 1 POSRES_FC POSRES_FC POSRES_FC
15 1 POSRES_FC POSRES_FC POSRES_FC
17 1 POSRES_FC POSRES_FC POSRES_FC
19 1 POSRES_FC POSRES_FC POSRES_FC
21 1 POSRES_FC POSRES_FC POSRES_FC
23 1 POSRES_FC POSRES_FC POSRES_FC
25 1 POSRES_FC POSRES_FC POSRES_FC
27 1 POSRES_FC POSRES_FC POSRES_FC
29 1 POSRES_FC POSRES_FC POSRES_FC
31 1 POSRES_FC POSRES_FC POSRES_FC
33 1 POSRES_FC POSRES_FC POSRES_FC
35 1 POSRES_FC POSRES_FC POSRES_FC
37 1 POSRES_FC POSRES_FC POSRES_FC
40 1 POSRES_FC POSRES_FC POSRES_FC
43 1 POSRES_FC POSRES_FC POSRES_FC
#endif

[ bonds ]
; Side chain bonds
 1  2 1 0.363 7500
 3  4 1 0.330 7500
 5  6 1 0.325 7500
 9 10 1 0.325 7500
13 14 1 0.363 7500
15 16 1 0.363 7500
17 18 1 0.287 7500
19 20 1 0.363 7500
23 24 1 0.330 7500
25 26 1 0.287 7500
31 32 1 0.287 7500
37 38 1 0.330 5000
38 39 1 0.360 5000
40 41 1 0.330 5000
41 42 1 0.360 5000

#ifdef FLEXIBLE
; Side chain bonds
 6  7 1 0.340 1000000
 6  8 1 0.340 1000000
 7  8 1 0.290 1000000
10 11 1 0.340 1000000
10 12 1 0.340 1000000
11 12 1 0.290 1000000
21 22 1 0.341 1000000
27 28 1 0.270 1000000
29 30 1 0.341 1000000
33 34 1 0.270 1000000
35 36 1 0.341 1000000
43 44 1 0.341 1000000
#endif

[ constraints ]
; Backbone bonds
 1  3 1 0.33
 3  5 1 0.310
 5  9 1 0.310
 9 13 1 0.310
13 15 1 0.310
15 17 1 0.310
17 19 1 0.310
19 21 1 0.310
21 23 1 0.310
23 25 1 0.310
25 27 1 0.310
27 29 1 0.310
29 31 1 0.310
31 33 1 0.310
33 35 1 0.310
35 37 1 0.310
37 40 1 0.310
40 43 1 0.33

#ifndef FLEXIBLE
; Side chain bonds
 6  7 1 0.340
 6  8 1 0.340
 7  8 1 0.290
10 11 1 0.340
10 12 1 0.340
11 12 1 0.290
21 22 1 0.341
27 28 1 0.270
29 30 1 0.341
33 34 1 0.270
35 36 1 0.341
43 44 1 0.341
#endif

[ angles ]
; BBB angles
 1  3  5 10 98 100
 3  5  9 10 98 100
 5  9 13 2 96 700
 9 13 15 2 96 700
13 15 17 2 96 700
15 17 19 2 96 700
17 19 21 2 96 700
19 21 23 10 98 100
21 23 25 10 98 100
23 25 27 10 98 100
25 27 29 2 96 700
27 29 31 2 96 700
29 31 33 2 96 700
31 33 35 2 96 700
33 35 37 2 96 700
35 37 40 2 96 700
37 40 43 10 127 20

; BBS angles regular martini
 1  3  4 2 100 25
 3  5  6 2 100 25
 5  9 10 2 100 25
 9 13 14 2 100 25
13 15 16 2 100 25
15 17 18 2 100 25
17 19 20 2 100 25
19 21 22 2 100 25
21 23 24 2 100 25
23 25 26 2 100 25
25 27 28 2 100 25
27 29 30 2 100 25
29 31 32 2 100 25
31 33 34 2 100 25
33 35 36 2 100 25
35 37 38 2 100 25
37 40 41 2 100 25
40 43 44 2 100 25

; First SBB regular martini
 2  1  3 2 100 25

; SC-BB-BB and BB-BB-SC scFix
 2  1  3 10 100 15 ; SC-BB-BB
 4  3  5 10 100 15 ; SC-BB-BB
 6  5  9 10 100 15 ; SC-BB-BB
10  9 13 10 100 15 ; SC-BB-BB
14 13 15 10 100 15 ; SC-BB-BB
16 15 17 10 100 15 ; SC-BB-BB
18 17 19 10 100 15 ; SC-BB-BB
20 19 21 10 100 15 ; SC-BB-BB
22 21 23 10 100 15 ; SC-BB-BB
24 23 25 10 100 15 ; SC-BB-BB
26 25 27 10 100 15 ; SC-BB-BB
28 27 29 10 100 15 ; SC-BB-BB
30 29 31 10 100 15 ; SC-BB-BB
32 31 33 10 100 15 ; SC-BB-BB
34 33 35 10 100 15 ; SC-BB-BB
36 35 37 10 100 15 ; SC-BB-BB
38 37 40 10 100 15 ; SC-BB-BB
41 40 43 10 100 15 ; SC-BB-BB
 1  3  4 10 100 15 ; BB-BB-SC
 3  5  6 10 100 15 ; BB-BB-SC
 5  9 10 10 100 15 ; BB-BB-SC
 9 13 14 10 100 15 ; BB-BB-SC
13 15 16 10 100 15 ; BB-BB-SC
15 17 18 10 100 15 ; BB-BB-SC
17 19 20 10 100 15 ; BB-BB-SC
19 21 22 10 100 15 ; BB-BB-SC
21 23 24 10 100 15 ; BB-BB-SC
23 25 26 10 100 15 ; BB-BB-SC
25 27 28 10 100 15 ; BB-BB-SC
27 29 30 10 100 15 ; BB-BB-SC
29 31 32 10 100 15 ; BB-BB-SC
31 33 34 10 100 15 ; BB-BB-SC
33 35 36 10 100 15 ; BB-BB-SC
35 37 38 10 100 15 ; BB-BB-SC
37 40 41 10 100 15 ; BB-BB-SC
40 43 44 10 100 15 ; BB-BB-SC

; Side chain angles
 5  6  7 2 120.000 50.0
 5  6  8 2 120.000 50.0
 9 10 11 2 120.000 50.0
 9 10 12 2 120.000 50.0
37 38 39 2 180.000 25.0
40 41 42 2 180.000 25.0

[ dihedrals ]
 3  5  9 13 1 -120 400 1
 5  9 13 15 1 -120 400 1
 9 13 15 17 1 -120 400 1
13 15 17 19 1 -120 400 1
15 17 19 21 1 -120 400 1
17 19 21 23 1 -120 400 1
19 21 23 25 1 -120 400 1
21 23 25 27 1 -120 400 1
23 25 27 29 1 -120 400 1
25 27 29 31 1 -120 400 1
27 29 31 33 1 -120 400 1
29 31 33 35 1 -120 400 1
31 33 35 37 1 -120 400 1
33 35 37 40 1 -120 400 1

; SC-BB-BB-SC scFix
 2  1  3  4 1 -86.2 75 1 ; SC-BB-BB-SC
 4  3  5  6 1 170.3 75 1 ; SC-BB-BB-SC
 6  5  9 10 1 -106.1 75 1 ; SC-BB-BB-SC
10  9 13 14 1 -129.5 75 1 ; SC-BB-BB-SC
14 13 15 16 1 -152.8 75 1 ; SC-BB-BB-SC
16 15 17 18 1 -124.6 75 1 ; SC-BB-BB-SC
18 17 19 20 1 -150.1 75 1 ; SC-BB-BB-SC
20 19 21 22 1 -122.2 75 1 ; SC-BB-BB-SC
22 21 23 24 1 -135.9 75 1 ; SC-BB-BB-SC
24 23 25 26 1 168.7 75 1 ; SC-BB-BB-SC
26 25 27 28 1 -135.8 75 1 ; SC-BB-BB-SC
28 27 29 30 1 -147.3 75 1 ; SC-BB-BB-SC
30 29 31 32 1 -139.9 75 1 ; SC-BB-BB-SC
32 31 33 34 1 -111.9 75 1 ; SC-BB-BB-SC
34 33 35 36 1 -157.2 75 1 ; SC-BB-BB-SC
36 35 37 38 1 -140.5 75 1 ; SC-BB-BB-SC
38 37 40 41 1 -126.6 75 1 ; SC-BB-BB-SC
41 40 43 44 1 -126.6 75 1 ; SC-BB-BB-SC

[ exclusions ]
 5  6  7  8 
 6  7  8 
 7  8 
 9 10 11 12 
10 11 12 
11 12 

