; This file was generated using the following command:
; /opt/conda/bin/martinize2 -f /work/simulations/solvia_524_run_1/colabfold/best_model.pdb -ff martini3001 -x /work/simulations/solvia_524_run_1/coarse_grain/SOLVIA_524_cg.pdb -o /work/simulations/solvia_524_run_1/coarse_grain/SOLVIA_524.itp -name SOLVIA_524 -cter NH2-ter -maxwarn 1 -cys auto -dssp -p backbone -pf 1000
; martinize with vermouth 0.14.0
; The following sequence of secondary structure 
; was used for the full system:
; CHHHHHHHHHHHHHHHHHHHHCCC

; Please cite the following papers:
; Kroon, P C; Grunewald, F; Barnoud, J; van Tilburg, M; Souza, P C; Wassenaar, T A; Marrink, S J;  elife 2024; 10.7554/elife.90627.2
; McGibbon, R T; Beauchamp, K A; Harrigan, M P; Klein, C; Swails, J M; Hernández, C X; Schwantes, C R; Wang, L; Lane, T J; Pande, V S;  Biophysical Journal 2015; 10.1016/j.bpj.2015.08.015
; Souza, P C T; Alessandri, R; Barnoud, J; Thallmair, S; Faustino, I; Grünewald, F; Patmanidis, I; Abdizadeh, H; Bruininks, B M H; Wassenaar, T A; Kroon, P C; Melcr, J; Nieto, V; Corradi, V; Khan, H M; Domański, J; Javanainen, M; Martinez-Seara, H; Reuter, N; Best, R B; Vattulainen, I; Monticelli, L; Periole, X; Tieleman, D P; de Vries, A H; Marrink, S J;  Nature Methods 2021; 10.1038/s41592-021-01098-3

#ifndef POSRES_FC
#define POSRES_FC 1000.0
#endif

[ moleculetype ]
SOLVIA_524 1

[ atoms ]
 1 Q5    1 PHE BB   1   1 
 2 SC4   1 PHE SC1  2 0.0 
 3 TC5   1 PHE SC2  3 0.0 
 4 TC5   1 PHE SC3  4 0.0 
 5 P2    2 LEU BB   5 0.0 
 6 SC2   2 LEU SC1  6 0.0 
 7 SP2a  3 PRO BB   7 0.0 
 8 SC3   3 PRO SC1  8 0.0 
 9 P2    4 ILE BB   9 0.0 
10 SC2   4 ILE SC1 10 0.0 
11 P2    5 LEU BB  11 0.0 
12 SC2   5 LEU SC1 12 0.0 
13 SP2   6 ALA BB  13 0.0 
14 TC3   6 ALA SC1 14 0.0 
15 SP1   7 GLY BB  15 0.0 
16 P2    8 LEU BB  16 0.0 
17 SC2   8 LEU SC1 17 0.0 
18 SP2   9 ALA BB  18 0.0 
19 TC3   9 ALA SC1 19 0.0 
20 SP2  10 ALA BB  20 0.0 
21 TC3  10 ALA SC1 21 0.0 
22 P2   11 ASN BB  22 0.0 
23 SP5  11 ASN SC1 23 0.0 
24 P2   12 ILE BB  24 0.0 
25 SC2  12 ILE SC1 25 0.0 
26 P2   13 LEU BB  26 0.0 
27 SC2  13 LEU SC1 27 0.0 
28 SP2a 14 PRO BB  28 0.0 
29 SC3  14 PRO SC1 29 0.0 
30 P2   15 LYS BB  30 0.0 
31 SC3  15 LYS SC1 31 0.0 
32 SQ4p 15 LYS SC2 32 1.0 
33 SP2  16 VAL BB  33 0.0 
34 SC3  16 VAL SC1 34 0.0 
35 P2   17 PHE BB  35 0.0 
36 SC4  17 PHE SC1 36 0.0 
37 TC5  17 PHE SC2 37 0.0 
38 TC5  17 PHE SC3 38 0.0 
39 P2   18 CYS BB  39 0.0 
40 TC6  18 CYS SC1 40 0.0 
41 P2   19 SER BB  41 0.0 
42 TP1  19 SER SC1 42 0.0 
43 P2   20 ILE BB  43 0.0 
44 SC2  20 ILE SC1 44 0.0 
45 P2   21 THR BB  45 0.0 
46 SP1  21 THR SC1 46 0.0 
47 P2   22 LYS BB  47 0.0 
48 SC3  22 LYS SC1 48 0.0 
49 SQ4p 22 LYS SC2 49 1.0 
50 P2   23 LYS BB  50 0.0 
51 SC3  23 LYS SC1 51 0.0 
52 SQ4p 23 LYS SC2 52 1.0 
53 P2   24 CYS BB  53 0.0 
54 TC6  24 CYS SC1 54 0.0 

[ position_restraints ]
#ifdef POSRES
 1 1 POSRES_FC POSRES_FC POSRES_FC
 5 1 POSRES_FC POSRES_FC POSRES_FC
 7 1 POSRES_FC POSRES_FC POSRES_FC
 9 1 POSRES_FC POSRES_FC POSRES_FC
11 1 POSRES_FC POSRES_FC POSRES_FC
13 1 POSRES_FC POSRES_FC POSRES_FC
15 1 POSRES_FC POSRES_FC POSRES_FC
16 1 POSRES_FC POSRES_FC POSRES_FC
18 1 POSRES_FC POSRES_FC POSRES_FC
20 1 POSRES_FC POSRES_FC POSRES_FC
22 1 POSRES_FC POSRES_FC POSRES_FC
24 1 POSRES_FC POSRES_FC POSRES_FC
26 1 POSRES_FC POSRES_FC POSRES_FC
28 1 POSRES_FC POSRES_FC POSRES_FC
30 1 POSRES_FC POSRES_FC POSRES_FC
33 1 POSRES_FC POSRES_FC POSRES_FC
35 1 POSRES_FC POSRES_FC POSRES_FC
39 1 POSRES_FC POSRES_FC POSRES_FC
41 1 POSRES_FC POSRES_FC POSRES_FC
43 1 POSRES_FC POSRES_FC POSRES_FC
45 1 POSRES_FC POSRES_FC POSRES_FC
47 1 POSRES_FC POSRES_FC POSRES_FC
50 1 POSRES_FC POSRES_FC POSRES_FC
53 1 POSRES_FC POSRES_FC POSRES_FC
#endif

[ bonds ]
; Backbone bonds
47 50 1 0.350 4000
50 53 1 0.350 4000

; Side chain bonds
 1  2 1 0.325 7500
 5  6 1 0.363 7500
 7  8 1 0.330 7500
11 12 1 0.363 7500
16 17 1 0.363 7500
22 23 1 0.352 5000
26 27 1 0.363 7500
28 29 1 0.330 7500
30 31 1 0.330 5000
31 32 1 0.360 5000
35 36 1 0.325 7500
39 40 1 0.341 7500
41 42 1 0.287 7500
47 48 1 0.330 5000
48 49 1 0.360 5000
50 51 1 0.330 5000
51 52 1 0.360 5000
53 54 1 0.341 7500

#ifdef FLEXIBLE
; Side chain bonds
 2  3 1 0.340 1000000
 2  4 1 0.340 1000000
 3  4 1 0.290 1000000
 9 10 1 0.341 1000000
13 14 1 0.270 1000000
18 19 1 0.270 1000000
20 21 1 0.270 1000000
24 25 1 0.341 1000000
33 34 1 0.292 1000000
36 37 1 0.340 1000000
36 38 1 0.340 1000000
37 38 1 0.290 1000000
43 44 1 0.341 1000000
45 46 1 0.305 1000000
#endif

[ constraints ]
40 54 1 0.24 ; Disulfide bridge

; Backbone bonds
 1  5 1 0.33
 5  7 1 0.310
 7  9 1 0.310
 9 11 1 0.310
11 13 1 0.310
13 15 1 0.310
15 16 1 0.310
16 18 1 0.310
18 20 1 0.310
20 22 1 0.310
22 24 1 0.310
24 26 1 0.310
26 28 1 0.310
28 30 1 0.310
30 33 1 0.310
33 35 1 0.310
35 39 1 0.310
39 41 1 0.310
41 43 1 0.310
43 45 1 0.310
45 47 1 0.33

#ifndef FLEXIBLE
; Side chain bonds
 2  3 1 0.340
 2  4 1 0.340
 3  4 1 0.290
 9 10 1 0.341
13 14 1 0.270
18 19 1 0.270
20 21 1 0.270
24 25 1 0.341
33 34 1 0.292
36 37 1 0.340
36 38 1 0.340
37 38 1 0.290
43 44 1 0.341
45 46 1 0.305
#endif

[ angles ]
; BBB angles
 1  5  7 10 127 20
 5  7  9 10 98 100
 7  9 11 10 98 100
 9 11 13 2 96 700
11 13 15 2 96 700
13 15 16 2 96 700
15 16 18 2 96 700
16 18 20 2 96 700
18 20 22 2 96 700
20 22 24 2 96 700
22 24 26 2 96 700
24 26 28 10 98 100
26 28 30 10 98 100
28 30 33 10 98 100
30 33 35 2 96 700
33 35 39 2 96 700
35 39 41 2 96 700
39 41 43 2 96 700
41 43 45 2 96 700
43 45 47 10 127 20
45 47 50 10 127 20
47 50 53 10 127 20

; BBS angles regular martini
 1  5  6 2 100 25
 5  7  8 2 100 25
 7  9 10 2 100 25
 9 11 12 2 100 25
11 13 14 2 100 25
15 16 17 2 100 25
16 18 19 2 100 25
18 20 21 2 100 25
20 22 23 2 100 25
22 24 25 2 100 25
24 26 27 2 100 25
26 28 29 2 100 25
28 30 31 2 100 25
30 33 34 2 100 25
33 35 36 2 100 25
35 39 40 2 100 25
39 41 42 2 100 25
41 43 44 2 100 25
43 45 46 2 100 25
45 47 48 2 100 25
47 50 51 2 100 25
50 53 54 2 100 25

; First SBB regular martini
 2  1  5 2 100 25

; SC-BB-BB and BB-BB-SC scFix
 2  1  5 10 100 15 ; SC-BB-BB
 6  5  7 10 100 15 ; SC-BB-BB
 8  7  9 10 100 15 ; SC-BB-BB
10  9 11 10 100 15 ; SC-BB-BB
12 11 13 10 100 15 ; SC-BB-BB
14 13 15 10 100 15 ; SC-BB-BB
17 16 18 10 100 15 ; SC-BB-BB
19 18 20 10 100 15 ; SC-BB-BB
21 20 22 10 100 15 ; SC-BB-BB
23 22 24 10 100 15 ; SC-BB-BB
25 24 26 10 100 15 ; SC-BB-BB
27 26 28 10 100 15 ; SC-BB-BB
29 28 30 10 100 15 ; SC-BB-BB
31 30 33 10 100 15 ; SC-BB-BB
34 33 35 10 100 15 ; SC-BB-BB
36 35 39 10 100 15 ; SC-BB-BB
40 39 41 10 100 15 ; SC-BB-BB
42 41 43 10 100 15 ; SC-BB-BB
44 43 45 10 100 15 ; SC-BB-BB
46 45 47 10 100 15 ; SC-BB-BB
48 47 50 10 100 15 ; SC-BB-BB
51 50 53 10 100 15 ; SC-BB-BB
 1  5  6 10 100 15 ; BB-BB-SC
 5  7  8 10 100 15 ; BB-BB-SC
 7  9 10 10 100 15 ; BB-BB-SC
 9 11 12 10 100 15 ; BB-BB-SC
11 13 14 10 100 15 ; BB-BB-SC
15 16 17 10 100 15 ; BB-BB-SC
16 18 19 10 100 15 ; BB-BB-SC
18 20 21 10 100 15 ; BB-BB-SC
20 22 23 10 100 15 ; BB-BB-SC
22 24 25 10 100 15 ; BB-BB-SC
24 26 27 10 100 15 ; BB-BB-SC
26 28 29 10 100 15 ; BB-BB-SC
28 30 31 10 100 15 ; BB-BB-SC
30 33 34 10 100 15 ; BB-BB-SC
33 35 36 10 100 15 ; BB-BB-SC
35 39 40 10 100 15 ; BB-BB-SC
39 41 42 10 100 15 ; BB-BB-SC
41 43 44 10 100 15 ; BB-BB-SC
43 45 46 10 100 15 ; BB-BB-SC
45 47 48 10 100 15 ; BB-BB-SC
47 50 51 10 100 15 ; BB-BB-SC
50 53 54 10 100 15 ; BB-BB-SC

; Side chain angles
 1  2  3 2 120.000 50.0
 1  2  4 2 120.000 50.0
30 31 32 2 180.000 25.0
35 36 37 2 120.000 50.0
35 36 38 2 120.000 50.0
47 48 49 2 180.000 25.0
50 51 52 2 180.000 25.0

[ dihedrals ]
 5  7  9 11 1 -120 400 1
 7  9 11 13 1 -120 400 1
 9 11 13 15 1 -120 400 1
11 13 15 16 1 -120 400 1
13 15 16 18 1 -120 400 1
15 16 18 20 1 -120 400 1
16 18 20 22 1 -120 400 1
18 20 22 24 1 -120 400 1
20 22 24 26 1 -120 400 1
22 24 26 28 1 -120 400 1
24 26 28 30 1 -120 400 1
26 28 30 33 1 -120 400 1
28 30 33 35 1 -120 400 1
30 33 35 39 1 -120 400 1
33 35 39 41 1 -120 400 1
35 39 41 43 1 -120 400 1
39 41 43 45 1 -120 400 1

; SC-BB-BB-SC scFix
 2  1  5  6 1 -111.3 75 1 ; SC-BB-BB-SC
 6  5  7  8 1 -116.5 75 1 ; SC-BB-BB-SC
 8  7  9 10 1 159.9 75 1 ; SC-BB-BB-SC
10  9 11 12 1 -146.5 75 1 ; SC-BB-BB-SC
12 11 13 14 1 -133.4 75 1 ; SC-BB-BB-SC
17 16 18 19 1 -117.6 75 1 ; SC-BB-BB-SC
19 18 20 21 1 -138.7 75 1 ; SC-BB-BB-SC
21 20 22 23 1 -173.5 75 1 ; SC-BB-BB-SC
23 22 24 25 1 175.1 75 1 ; SC-BB-BB-SC
25 24 26 27 1 -127.0 75 1 ; SC-BB-BB-SC
27 26 28 29 1 -117.5 75 1 ; SC-BB-BB-SC
29 28 30 31 1 166.7 75 1 ; SC-BB-BB-SC
31 30 33 34 1 -151.9 75 1 ; SC-BB-BB-SC
34 33 35 36 1 -147.4 75 1 ; SC-BB-BB-SC
36 35 39 40 1 -136.9 75 1 ; SC-BB-BB-SC
40 39 41 42 1 -122.9 75 1 ; SC-BB-BB-SC
42 41 43 44 1 -128.4 75 1 ; SC-BB-BB-SC
44 43 45 46 1 -163.1 75 1 ; SC-BB-BB-SC
46 45 47 48 1 -4.2 75 1 ; SC-BB-BB-SC
48 47 50 51 1 45.4 75 1 ; SC-BB-BB-SC
51 50 53 54 1 1.2 75 1 ; SC-BB-BB-SC
13 15 16 17 1 81.3 75 1 ; BB-BB-BB-SC
14 13 15 16 1 -3.5 75 1 ; SC-BB-BB-BB

[ exclusions ]
 1  2  3  4 
 2  3  4 
 3  4 
35 36 37 38 
36 37 38 
37 38 

