; This file was generated using the following command:
; /opt/conda/bin/martinize2 -f /work/simulations/solvia_941_run_1/colabfold/best_model.pdb -ff martini3001 -x /work/simulations/solvia_941_run_1/coarse_grain/SOLVIA_941_cg.pdb -o /work/simulations/solvia_941_run_1/coarse_grain/SOLVIA_941.itp -name SOLVIA_941 -cter NH2-ter -maxwarn 1 -cys auto -dssp -p backbone -pf 1000
; martinize with vermouth 0.14.0
; The following sequence of secondary structure 
; was used for the full system:
; CHHHHHHHHHHHHHHHHC

; Please cite the following papers:
; Souza, P C T; Alessandri, R; Barnoud, J; Thallmair, S; Faustino, I; Grünewald, F; Patmanidis, I; Abdizadeh, H; Bruininks, B M H; Wassenaar, T A; Kroon, P C; Melcr, J; Nieto, V; Corradi, V; Khan, H M; Domański, J; Javanainen, M; Martinez-Seara, H; Reuter, N; Best, R B; Vattulainen, I; Monticelli, L; Periole, X; Tieleman, D P; de Vries, A H; Marrink, S J;  Nature Methods 2021; 10.1038/s41592-021-01098-3
; McGibbon, R T; Beauchamp, K A; Harrigan, M P; Klein, C; Swails, J M; Hernández, C X; Schwantes, C R; Wang, L; Lane, T J; Pande, V S;  Biophysical Journal 2015; 10.1016/j.bpj.2015.08.015
; Kroon, P C; Grunewald, F; Barnoud, J; van Tilburg, M; Souza, P C; Wassenaar, T A; Marrink, S J;  elife 2024; 10.7554/elife.90627.2

#ifndef POSRES_FC
#define POSRES_FC 1000.0
#endif

[ moleculetype ]
SOLVIA_941 1

[ atoms ]
 1 Q5    1 ILE BB   1   1     
 2 SC2   1 ILE SC1  2 0.0     
 3 P2    2 PHE BB   3 0.0     
 4 SC4   2 PHE SC1  4 0.0     
 5 TC5   2 PHE SC2  5 0.0     
 6 TC5   2 PHE SC3  6 0.0     
 7 SP1   3 GLY BB   7 0.0     
 8 SP2   4 ALA BB   8 0.0     
 9 TC3   4 ALA SC1  9 0.0     
10 P2    5 ILE BB  10 0.0     
11 SC2   5 ILE SC1 11 0.0     
12 P2    6 TRP BB  12 0.0     
13 TC4   6 TRP SC1 13 0.0 36.0
14 TN6d  6 TRP SC2 14 0.0 36.0
15 TC5   6 TRP SC3 15 0.0  0.0
16 TC5   6 TRP SC4 16 0.0 36.0
17 TC5   6 TRP SC5 17 0.0 36.0
18 SP2a  7 PRO BB  18 0.0     
19 SC3   7 PRO SC1 19 0.0     
20 P2    8 LEU BB  20 0.0     
21 SC2   8 LEU SC1 21 0.0     
22 SP2   9 ALA BB  22 0.0     
23 TC3   9 ALA SC1 23 0.0     
24 P2   10 LEU BB  24 0.0     
25 SC2  10 LEU SC1 25 0.0     
26 SP1  11 GLY BB  26 0.0     
27 SP2  12 ALA BB  27 0.0     
28 TC3  12 ALA SC1 28 0.0     
29 P2   13 LEU BB  29 0.0     
30 SC2  13 LEU SC1 30 0.0     
31 P2   14 LYS BB  31 0.0     
32 SC3  14 LYS SC1 32 0.0     
33 SQ4p 14 LYS SC2 33 1.0     
34 P2   15 ASN BB  34 0.0     
35 SP5  15 ASN SC1 35 0.0     
36 P2   16 LEU BB  36 0.0     
37 SC2  16 LEU SC1 37 0.0     
38 P2   17 ILE BB  38 0.0     
39 SC2  17 ILE SC1 39 0.0     
40 P6   18 LYS BB  40   0     
41 SC3  18 LYS SC1 41 0.0     
42 SQ4p 18 LYS SC2 42 1.0     

[ position_restraints ]
#ifdef POSRES
 1 1 POSRES_FC POSRES_FC POSRES_FC
 3 1 POSRES_FC POSRES_FC POSRES_FC
 7 1 POSRES_FC POSRES_FC POSRES_FC
 8 1 POSRES_FC POSRES_FC POSRES_FC
10 1 POSRES_FC POSRES_FC POSRES_FC
12 1 POSRES_FC POSRES_FC POSRES_FC
18 1 POSRES_FC POSRES_FC POSRES_FC
20 1 POSRES_FC POSRES_FC POSRES_FC
22 1 POSRES_FC POSRES_FC POSRES_FC
24 1 POSRES_FC POSRES_FC POSRES_FC
26 1 POSRES_FC POSRES_FC POSRES_FC
27 1 POSRES_FC POSRES_FC POSRES_FC
29 1 POSRES_FC POSRES_FC POSRES_FC
31 1 POSRES_FC POSRES_FC POSRES_FC
34 1 POSRES_FC POSRES_FC POSRES_FC
36 1 POSRES_FC POSRES_FC POSRES_FC
38 1 POSRES_FC POSRES_FC POSRES_FC
40 1 POSRES_FC POSRES_FC POSRES_FC
#endif

[ bonds ]
; Side chain bonds
 3  4 1 0.325 7500
12 13 1 0.315 5000
18 19 1 0.330 7500
20 21 1 0.363 7500
24 25 1 0.363 7500
29 30 1 0.363 7500
31 32 1 0.330 5000
32 33 1 0.360 5000
34 35 1 0.352 5000
36 37 1 0.363 7500
40 41 1 0.330 5000
41 42 1 0.360 5000

#ifdef FLEXIBLE
; Side chain bonds
 1  2 1 0.341 1000000
 4  5 1 0.340 1000000
 4  6 1 0.340 1000000
 5  6 1 0.290 1000000
 8  9 1 0.270 1000000
10 11 1 0.341 1000000
13 14 1 0.335 1000000
14 17 1 0.412 1000000
16 17 1 0.293 1000000
13 16 1 0.404 1000000
14 16 1 0.470 1000000
22 23 1 0.270 1000000
27 28 1 0.270 1000000
38 39 1 0.341 1000000
#endif

[ constraints ]
; Backbone bonds
 1  3 1 0.33
 3  7 1 0.310
 7  8 1 0.310
 8 10 1 0.310
10 12 1 0.310
12 18 1 0.310
18 20 1 0.310
20 22 1 0.310
22 24 1 0.310
24 26 1 0.310
26 27 1 0.310
27 29 1 0.310
29 31 1 0.310
31 34 1 0.310
34 36 1 0.310
36 38 1 0.310
38 40 1 0.33

#ifndef FLEXIBLE
; Side chain bonds
 1  2 1 0.341
 4  5 1 0.340
 4  6 1 0.340
 5  6 1 0.290
 8  9 1 0.270
10 11 1 0.341
13 14 1 0.335
14 17 1 0.412
16 17 1 0.293
13 16 1 0.404
14 16 1 0.470
22 23 1 0.270
27 28 1 0.270
38 39 1 0.341
#endif

[ angles ]
; BBB angles
 1  3  7 10 127 20
 3  7  8 2 96 700
 7  8 10 2 96 700
 8 10 12 2 96 700
10 12 18 10 98 100
12 18 20 10 98 100
18 20 22 10 98 100
20 22 24 2 96 700
22 24 26 2 96 700
24 26 27 2 96 700
26 27 29 2 96 700
27 29 31 2 96 700
29 31 34 2 96 700
31 34 36 2 96 700
34 36 38 2 96 700
36 38 40 10 127 20

; BBS angles regular martini
 1  3  4 2 100 25
 7  8  9 2 100 25
 8 10 11 2 100 25
10 12 13 2 100 25
12 18 19 2 100 25
18 20 21 2 100 25
20 22 23 2 100 25
22 24 25 2 100 25
26 27 28 2 100 25
27 29 30 2 100 25
29 31 32 2 100 25
31 34 35 2 100 25
34 36 37 2 100 25
36 38 39 2 100 25
38 40 41 2 100 25

; First SBB regular martini
 2  1  3 2 100 25

; SC-BB-BB and BB-BB-SC scFix
 2  1  3 10 100 15 ; SC-BB-BB
 4  3  7 10 100 15 ; SC-BB-BB
 9  8 10 10 100 15 ; SC-BB-BB
11 10 12 10 100 15 ; SC-BB-BB
13 12 18 10 100 15 ; SC-BB-BB
19 18 20 10 100 15 ; SC-BB-BB
21 20 22 10 100 15 ; SC-BB-BB
23 22 24 10 100 15 ; SC-BB-BB
25 24 26 10 100 15 ; SC-BB-BB
28 27 29 10 100 15 ; SC-BB-BB
30 29 31 10 100 15 ; SC-BB-BB
32 31 34 10 100 15 ; SC-BB-BB
35 34 36 10 100 15 ; SC-BB-BB
37 36 38 10 100 15 ; SC-BB-BB
39 38 40 10 100 15 ; SC-BB-BB
 1  3  4 10 100 15 ; BB-BB-SC
 7  8  9 10 100 15 ; BB-BB-SC
 8 10 11 10 100 15 ; BB-BB-SC
10 12 13 10 100 15 ; BB-BB-SC
12 18 19 10 100 15 ; BB-BB-SC
18 20 21 10 100 15 ; BB-BB-SC
20 22 23 10 100 15 ; BB-BB-SC
22 24 25 10 100 15 ; BB-BB-SC
26 27 28 10 100 15 ; BB-BB-SC
27 29 30 10 100 15 ; BB-BB-SC
29 31 32 10 100 15 ; BB-BB-SC
31 34 35 10 100 15 ; BB-BB-SC
34 36 37 10 100 15 ; BB-BB-SC
36 38 39 10 100 15 ; BB-BB-SC
38 40 41 10 100 15 ; BB-BB-SC

; Side chain angles
 3  4  5 2 120.000 50.0
 3  4  6 2 120.000 50.0
12 13 14 2 120.000 60.0
12 13 16 2 130.000 60.0
31 32 33 2 180.000 25.0
40 41 42 2 180.000 25.0

[ dihedrals ]
 3  7  8 10 1 -120 400 1
 7  8 10 12 1 -120 400 1
 8 10 12 18 1 -120 400 1
10 12 18 20 1 -120 400 1
12 18 20 22 1 -120 400 1
18 20 22 24 1 -120 400 1
20 22 24 26 1 -120 400 1
22 24 26 27 1 -120 400 1
24 26 27 29 1 -120 400 1
26 27 29 31 1 -120 400 1
27 29 31 34 1 -120 400 1
29 31 34 36 1 -120 400 1
31 34 36 38 1 -120 400 1

; SC-BB-BB-SC scFix
 2  1  3  4 1 -165.9 75 1 ; SC-BB-BB-SC
 9  8 10 11 1 -143.3 75 1 ; SC-BB-BB-SC
11 10 12 13 1 -108.9 75 1 ; SC-BB-BB-SC
13 12 18 19 1 -118.9 75 1 ; SC-BB-BB-SC
19 18 20 21 1 164.3 75 1 ; SC-BB-BB-SC
21 20 22 23 1 -126.7 75 1 ; SC-BB-BB-SC
23 22 24 25 1 -160.1 75 1 ; SC-BB-BB-SC
28 27 29 30 1 -155.4 75 1 ; SC-BB-BB-SC
30 29 31 32 1 -104.9 75 1 ; SC-BB-BB-SC
32 31 34 35 1 -143.9 75 1 ; SC-BB-BB-SC
35 34 36 37 1 -142.2 75 1 ; SC-BB-BB-SC
37 36 38 39 1 -134.1 75 1 ; SC-BB-BB-SC
39 38 40 41 1 -162.4 75 1 ; SC-BB-BB-SC
 3  7  8  9 1 93.3 75 1 ; BB-BB-BB-SC
 4  3  7  8 1 43.7 75 1 ; SC-BB-BB-BB
24 26 27 28 1 100.8 75 1 ; BB-BB-BB-SC
25 24 26 27 1 27.7 75 1 ; SC-BB-BB-BB

[ exclusions ]
 3  4  5  6 
 4  5  6 
 5  6 
12 13 14 15 16 17 
13 14 15 16 17 
14 15 16 17 
15 16 17 
16 17 

[ dihedrals ]
17 16 14 13 2 180.0 100.0

[ virtual_sitesn ]
15 2 17 16 14 13

