; This file was generated using the following command:
; /opt/conda/bin/martinize2 -f /work/simulations/solvia_1684_run_1/colabfold/best_model.pdb -ff martini3001 -x /work/simulations/solvia_1684_run_1/coarse_grain/SOLVIA_1684_cg.pdb -o /work/simulations/solvia_1684_run_1/coarse_grain/SOLVIA_1684.itp -name SOLVIA_1684 -cter NH2-ter -maxwarn 1 -cys auto -dssp -p backbone -pf 1000
; martinize with vermouth 0.15.0
; The following sequence of secondary structure 
; was used for the full system:
; CCSSSCHHHHCC

; Please cite the following papers:
; Kroon, P C; Grunewald, F; Barnoud, J; van Tilburg, M; Souza, P C; Wassenaar, T A; Marrink, S J;  elife 2024; 10.7554/elife.90627.2
; McGibbon, R T; Beauchamp, K A; Harrigan, M P; Klein, C; Swails, J M; Hernández, C X; Schwantes, C R; Wang, L; Lane, T J; Pande, V S;  Biophysical Journal 2015; 10.1016/j.bpj.2015.08.015
; Souza, P C T; Alessandri, R; Barnoud, J; Thallmair, S; Faustino, I; Grünewald, F; Patmanidis, I; Abdizadeh, H; Bruininks, B M H; Wassenaar, T A; Kroon, P C; Melcr, J; Nieto, V; Corradi, V; Khan, H M; Domański, J; Javanainen, M; Martinez-Seara, H; Reuter, N; Best, R B; Vattulainen, I; Monticelli, L; Periole, X; Tieleman, D P; de Vries, A H; Marrink, S J;  Nature Methods 2021; 10.1038/s41592-021-01098-3

#ifndef POSRES_FC
#define POSRES_FC 1000.0
#endif

[ moleculetype ]
SOLVIA_1684 1

[ atoms ]
 1 P2    1 CYS BB   1 0.0     
 2 TC6   1 CYS SC1  2 0.0     
 3 SP1   2 GLY BB   3 0.0     
 4 P2    3 LYS BB   4 0.0     
 5 SC3   3 LYS SC1  5 0.0     
 6 SQ4p  3 LYS SC2  6 1.0     
 7 P2    4 LYS BB   7 0.0     
 8 SC3   4 LYS SC1  8 0.0     
 9 SQ4p  4 LYS SC2  9 1.0     
10 SP2a  5 PRO BB  10 0.0     
11 SC3   5 PRO SC1 11 0.0     
12 P2    6 TRP BB  12 0.0     
13 TC4   6 TRP SC1 13 0.0 36.0
14 TN6d  6 TRP SC2 14 0.0 36.0
15 TC5   6 TRP SC3 15 0.0  0.0
16 TC5   6 TRP SC4 16 0.0 36.0
17 TC5   6 TRP SC5 17 0.0 36.0
18 P2    7 TRP BB  18 0.0     
19 TC4   7 TRP SC1 19 0.0 36.0
20 TN6d  7 TRP SC2 20 0.0 36.0
21 TC5   7 TRP SC3 21 0.0  0.0
22 TC5   7 TRP SC4 22 0.0 36.0
23 TC5   7 TRP SC5 23 0.0 36.0
24 P2    8 TRP BB  24 0.0     
25 TC4   8 TRP SC1 25 0.0 36.0
26 TN6d  8 TRP SC2 26 0.0 36.0
27 TC5   8 TRP SC3 27 0.0  0.0
28 TC5   8 TRP SC4 28 0.0 36.0
29 TC5   8 TRP SC5 29 0.0 36.0
30 P2    9 LYS BB  30 0.0     
31 SC3   9 LYS SC1 31 0.0     
32 SQ4p  9 LYS SC2 32 1.0     
33 P2   10 CYS BB  33 0.0     
34 TC6  10 CYS SC1 34 0.0     
35 P2   11 LYS BB  35 0.0     
36 SC3  11 LYS SC1 36 0.0     
37 SQ4p 11 LYS SC2 37 1.0     
38 P6   12 LEU BB  38   0     
39 SC2  12 LEU SC1 39 0.0     

[ position_restraints ]
#ifdef POSRES
 1 1 POSRES_FC POSRES_FC POSRES_FC
 3 1 POSRES_FC POSRES_FC POSRES_FC
 4 1 POSRES_FC POSRES_FC POSRES_FC
 7 1 POSRES_FC POSRES_FC POSRES_FC
10 1 POSRES_FC POSRES_FC POSRES_FC
12 1 POSRES_FC POSRES_FC POSRES_FC
18 1 POSRES_FC POSRES_FC POSRES_FC
24 1 POSRES_FC POSRES_FC POSRES_FC
30 1 POSRES_FC POSRES_FC POSRES_FC
33 1 POSRES_FC POSRES_FC POSRES_FC
35 1 POSRES_FC POSRES_FC POSRES_FC
38 1 POSRES_FC POSRES_FC POSRES_FC
#endif

[ bonds ]
; Backbone bonds
 1  3 1 0.350 4000
 3  4 1 0.350 4000
 4  7 1 0.350 4000
 7 10 1 0.350 4000
10 12 1 0.350 4000
35 38 1 0.350 4000

; Side chain bonds
 1  2 1 0.341 7500
 4  5 1 0.330 5000
 5  6 1 0.360 5000
 7  8 1 0.330 5000
 8  9 1 0.360 5000
10 11 1 0.330 7500
12 13 1 0.315 5000
18 19 1 0.315 5000
24 25 1 0.315 5000
30 31 1 0.330 5000
31 32 1 0.360 5000
33 34 1 0.341 7500
35 36 1 0.330 5000
36 37 1 0.360 5000
38 39 1 0.363 7500

#ifdef FLEXIBLE
; Side chain bonds
13 14 1 0.335 1000000
13 16 1 0.404 1000000
14 16 1 0.470 1000000
14 17 1 0.412 1000000
16 17 1 0.293 1000000
19 20 1 0.335 1000000
19 22 1 0.404 1000000
20 22 1 0.470 1000000
20 23 1 0.412 1000000
22 23 1 0.293 1000000
25 26 1 0.335 1000000
25 28 1 0.404 1000000
26 28 1 0.470 1000000
26 29 1 0.412 1000000
28 29 1 0.293 1000000
#endif

[ constraints ]
 2 34 1 0.24 ; Disulfide bridge

; Backbone bonds
12 18 1 0.33
18 24 1 0.310
24 30 1 0.310
30 33 1 0.310
33 35 1 0.33

#ifndef FLEXIBLE
; Side chain bonds
13 14 1 0.335
13 16 1 0.404
14 16 1 0.470
14 17 1 0.412
16 17 1 0.293
19 20 1 0.335
19 22 1 0.404
20 22 1 0.470
20 23 1 0.412
22 23 1 0.293
25 26 1 0.335
25 28 1 0.404
26 28 1 0.470
26 29 1 0.412
28 29 1 0.293
#endif

[ angles ]
; BBB angles
 1  3  4 10 127 20
 3  4  7 10 127 20
 4  7 10 10 130 20
 7 10 12 10 127 20
10 12 18 10 127 20
12 18 24 10 127 20
18 24 30 2 96 700
24 30 33 2 96 700
30 33 35 10 127 20
33 35 38 10 127 20

; BBS angles regular martini
 3  4  5 2 100 25
 4  7  8 2 100 25
 7 10 11 2 100 25
10 12 13 2 100 25
12 18 19 2 100 25
18 24 25 2 100 25
24 30 31 2 100 25
30 33 34 2 100 25
33 35 36 2 100 25
35 38 39 2 100 25

; First SBB regular martini
 2  1  3 2 100 25

; SC-BB-BB and BB-BB-SC scFix
 2  1  3 10 100 15 ; SC-BB-BB
 3  4  5 10 100 15 ; BB-BB-SC
 5  4  7 10 100 15 ; SC-BB-BB
 4  7  8 10 100 15 ; BB-BB-SC
 8  7 10 10 100 15 ; SC-BB-BB
 7 10 11 10 100 15 ; BB-BB-SC
11 10 12 10 100 15 ; SC-BB-BB
10 12 13 10 100 15 ; BB-BB-SC
13 12 18 10 100 15 ; SC-BB-BB
12 18 19 10 100 15 ; BB-BB-SC
19 18 24 10 100 15 ; SC-BB-BB
18 24 25 10 100 15 ; BB-BB-SC
25 24 30 10 100 15 ; SC-BB-BB
24 30 31 10 100 15 ; BB-BB-SC
31 30 33 10 100 15 ; SC-BB-BB
30 33 34 10 100 15 ; BB-BB-SC
34 33 35 10 100 15 ; SC-BB-BB
33 35 36 10 100 15 ; BB-BB-SC
36 35 38 10 100 15 ; SC-BB-BB
35 38 39 10 100 15 ; BB-BB-SC

; Side chain angles
 4  5  6 2 180.000 25.0
 7  8  9 2 180.000 25.0
12 13 14 2 120.000 60.0
12 13 16 2 130.000 60.0
18 19 20 2 120.000 60.0
18 19 22 2 130.000 60.0
24 25 26 2 120.000 60.0
24 25 28 2 130.000 60.0
30 31 32 2 180.000 25.0
35 36 37 2 180.000 25.0

[ dihedrals ]
18 24 30 33 1 -120 400 1

; SC-BB-BB-SC scFix
 1  3  4  5 1 -81.3 75 1 ; BB-BB-BB-SC
 2  1  3  4 1 -124.8 75 1 ; SC-BB-BB-BB
 5  4  7  8 1 -28.5 75 1 ; SC-BB-BB-SC
 8  7 10 11 1 118.9 75 1 ; SC-BB-BB-SC
11 10 12 13 1 141.0 75 1 ; SC-BB-BB-SC
13 12 18 19 1 1.8 75 1 ; SC-BB-BB-SC
19 18 24 25 1 -134.1 75 1 ; SC-BB-BB-SC
25 24 30 31 1 -172.6 75 1 ; SC-BB-BB-SC
31 30 33 34 1 -118.7 75 1 ; SC-BB-BB-SC
34 33 35 36 1 161.8 75 1 ; SC-BB-BB-SC
36 35 38 39 1 -49.2 75 1 ; SC-BB-BB-SC

[ dihedrals ]
17 16 14 13 2 180.0 100.0
23 22 20 19 2 180.0 100.0
29 28 26 25 2 180.0 100.0

[ virtual_sitesn ]
15 2 17 16 14 13
21 2 23 22 20 19
27 2 29 28 26 25

[ exclusions ]
12 13 14 15 16 17 
13 14 15 16 17 
14 15 16 17 
15 16 17 
16 17 
18 19 20 21 22 23 
19 20 21 22 23 
20 21 22 23 
21 22 23 
22 23 
24 25 26 27 28 29 
25 26 27 28 29 
26 27 28 29 
27 28 29 
28 29 

