; This file was generated using the following command:
; /opt/conda/bin/martinize2 -f /work/simulations/solvia_624_run_1/colabfold/best_model.pdb -ff martini3001 -x /work/simulations/solvia_624_run_1/coarse_grain/SOLVIA_624_cg.pdb -o /work/simulations/solvia_624_run_1/coarse_grain/SOLVIA_624.itp -name SOLVIA_624 -cter NH2-ter -maxwarn 1 -cys auto -dssp -p backbone -pf 1000
; martinize with vermouth 0.14.0
; The following sequence of secondary structure 
; was used for the full system:
; CHHHHHHHHHHHHHHHHHC

; Please cite the following papers:
; Kroon, P C; Grunewald, F; Barnoud, J; van Tilburg, M; Souza, P C; Wassenaar, T A; Marrink, S J;  elife 2024; 10.7554/elife.90627.2
; McGibbon, R T; Beauchamp, K A; Harrigan, M P; Klein, C; Swails, J M; Hernández, C X; Schwantes, C R; Wang, L; Lane, T J; Pande, V S;  Biophysical Journal 2015; 10.1016/j.bpj.2015.08.015
; Souza, P C T; Alessandri, R; Barnoud, J; Thallmair, S; Faustino, I; Grünewald, F; Patmanidis, I; Abdizadeh, H; Bruininks, B M H; Wassenaar, T A; Kroon, P C; Melcr, J; Nieto, V; Corradi, V; Khan, H M; Domański, J; Javanainen, M; Martinez-Seara, H; Reuter, N; Best, R B; Vattulainen, I; Monticelli, L; Periole, X; Tieleman, D P; de Vries, A H; Marrink, S J;  Nature Methods 2021; 10.1038/s41592-021-01098-3

#ifndef POSRES_FC
#define POSRES_FC 1000.0
#endif

[ moleculetype ]
SOLVIA_624 1

[ atoms ]
 1 Q5    1 GLY BB   1    1 
 2 P2    2 PHE BB   2  0.0 
 3 SC4   2 PHE SC1  3  0.0 
 4 TC5   2 PHE SC2  4  0.0 
 5 TC5   2 PHE SC3  5  0.0 
 6 P2    3 LYS BB   6  0.0 
 7 SC3   3 LYS SC1  7  0.0 
 8 SQ4p  3 LYS SC2  8  1.0 
 9 P2    4 ASP BB   9  0.0 
10 SQ5n  4 ASP SC1 10 -1.0 
11 P2    5 LEU BB  11  0.0 
12 SC2   5 LEU SC1 12  0.0 
13 P2    6 LEU BB  13  0.0 
14 SC2   6 LEU SC1 14  0.0 
15 P2    7 LYS BB  15  0.0 
16 SC3   7 LYS SC1 16  0.0 
17 SQ4p  7 LYS SC2 17  1.0 
18 P2    8 LYS BB  18  0.0 
19 SC3   8 LYS SC1 19  0.0 
20 SQ4p  8 LYS SC2 20  1.0 
21 SP2   9 ALA BB  21  0.0 
22 TC3   9 ALA SC1 22  0.0 
23 SP2  10 ALA BB  23  0.0 
24 TC3  10 ALA SC1 24  0.0 
25 P2   11 LYS BB  25  0.0 
26 SC3  11 LYS SC1 26  0.0 
27 SQ4p 11 LYS SC2 27  1.0 
28 SP2  12 ALA BB  28  0.0 
29 TC3  12 ALA SC1 29  0.0 
30 P2   13 LEU BB  30  0.0 
31 SC2  13 LEU SC1 31  0.0 
32 SP2  14 VAL BB  32  0.0 
33 SC3  14 VAL SC1 33  0.0 
34 P2   15 LYS BB  34  0.0 
35 SC3  15 LYS SC1 35  0.0 
36 SQ4p 15 LYS SC2 36  1.0 
37 P2   16 THR BB  37  0.0 
38 SP1  16 THR SC1 38  0.0 
39 SP2  17 VAL BB  39  0.0 
40 SC3  17 VAL SC1 40  0.0 
41 P2   18 LEU BB  41  0.0 
42 SC2  18 LEU SC1 42  0.0 
43 P6   19 PHE BB  43    0 
44 SC4  19 PHE SC1 44  0.0 
45 TC5  19 PHE SC2 45  0.0 
46 TC5  19 PHE SC3 46  0.0 

[ position_restraints ]
#ifdef POSRES
 1 1 POSRES_FC POSRES_FC POSRES_FC
 2 1 POSRES_FC POSRES_FC POSRES_FC
 6 1 POSRES_FC POSRES_FC POSRES_FC
 9 1 POSRES_FC POSRES_FC POSRES_FC
11 1 POSRES_FC POSRES_FC POSRES_FC
13 1 POSRES_FC POSRES_FC POSRES_FC
15 1 POSRES_FC POSRES_FC POSRES_FC
18 1 POSRES_FC POSRES_FC POSRES_FC
21 1 POSRES_FC POSRES_FC POSRES_FC
23 1 POSRES_FC POSRES_FC POSRES_FC
25 1 POSRES_FC POSRES_FC POSRES_FC
28 1 POSRES_FC POSRES_FC POSRES_FC
30 1 POSRES_FC POSRES_FC POSRES_FC
32 1 POSRES_FC POSRES_FC POSRES_FC
34 1 POSRES_FC POSRES_FC POSRES_FC
37 1 POSRES_FC POSRES_FC POSRES_FC
39 1 POSRES_FC POSRES_FC POSRES_FC
41 1 POSRES_FC POSRES_FC POSRES_FC
43 1 POSRES_FC POSRES_FC POSRES_FC
#endif

[ bonds ]
; Side chain bonds
 2  3 1 0.325 7500
 6  7 1 0.330 5000
 7  8 1 0.360 5000
 9 10 1 0.352 7500
11 12 1 0.363 7500
13 14 1 0.363 7500
15 16 1 0.330 5000
16 17 1 0.360 5000
18 19 1 0.330 5000
19 20 1 0.360 5000
25 26 1 0.330 5000
26 27 1 0.360 5000
30 31 1 0.363 7500
34 35 1 0.330 5000
35 36 1 0.360 5000
41 42 1 0.363 7500
43 44 1 0.325 7500

#ifdef FLEXIBLE
; Side chain bonds
 3  4 1 0.340 1000000
 3  5 1 0.340 1000000
 4  5 1 0.290 1000000
21 22 1 0.270 1000000
23 24 1 0.270 1000000
28 29 1 0.270 1000000
32 33 1 0.292 1000000
37 38 1 0.305 1000000
39 40 1 0.292 1000000
44 45 1 0.340 1000000
44 46 1 0.340 1000000
45 46 1 0.290 1000000
#endif

[ constraints ]
; Backbone bonds
 1  2 1 0.33
 2  6 1 0.310
 6  9 1 0.310
 9 11 1 0.310
11 13 1 0.310
13 15 1 0.310
15 18 1 0.310
18 21 1 0.310
21 23 1 0.310
23 25 1 0.310
25 28 1 0.310
28 30 1 0.310
30 32 1 0.310
32 34 1 0.310
34 37 1 0.310
37 39 1 0.310
39 41 1 0.310
41 43 1 0.33

#ifndef FLEXIBLE
; Side chain bonds
 3  4 1 0.340
 3  5 1 0.340
 4  5 1 0.290
21 22 1 0.270
23 24 1 0.270
28 29 1 0.270
32 33 1 0.292
37 38 1 0.305
39 40 1 0.292
44 45 1 0.340
44 46 1 0.340
45 46 1 0.290
#endif

[ angles ]
; BBB angles
 1  2  6 10 127 20
 2  6  9 2 96 700
 6  9 11 2 96 700
 9 11 13 2 96 700
11 13 15 2 96 700
13 15 18 2 96 700
15 18 21 2 96 700
18 21 23 2 96 700
21 23 25 2 96 700
23 25 28 2 96 700
25 28 30 2 96 700
28 30 32 2 96 700
30 32 34 2 96 700
32 34 37 2 96 700
34 37 39 2 96 700
37 39 41 2 96 700
39 41 43 10 127 20

; BBS angles regular martini
 1  2  3 2 100 25
 2  6  7 2 100 25
 6  9 10 2 100 25
 9 11 12 2 100 25
11 13 14 2 100 25
13 15 16 2 100 25
15 18 19 2 100 25
18 21 22 2 100 25
21 23 24 2 100 25
23 25 26 2 100 25
25 28 29 2 100 25
28 30 31 2 100 25
30 32 33 2 100 25
32 34 35 2 100 25
34 37 38 2 100 25
37 39 40 2 100 25
39 41 42 2 100 25
41 43 44 2 100 25

; SC-BB-BB and BB-BB-SC scFix
 3  2  6 10 100 15 ; SC-BB-BB
 7  6  9 10 100 15 ; SC-BB-BB
10  9 11 10 100 15 ; SC-BB-BB
12 11 13 10 100 15 ; SC-BB-BB
14 13 15 10 100 15 ; SC-BB-BB
16 15 18 10 100 15 ; SC-BB-BB
19 18 21 10 100 15 ; SC-BB-BB
22 21 23 10 100 15 ; SC-BB-BB
24 23 25 10 100 15 ; SC-BB-BB
26 25 28 10 100 15 ; SC-BB-BB
29 28 30 10 100 15 ; SC-BB-BB
31 30 32 10 100 15 ; SC-BB-BB
33 32 34 10 100 15 ; SC-BB-BB
35 34 37 10 100 15 ; SC-BB-BB
38 37 39 10 100 15 ; SC-BB-BB
40 39 41 10 100 15 ; SC-BB-BB
42 41 43 10 100 15 ; SC-BB-BB
 1  2  3 10 100 15 ; BB-BB-SC
 2  6  7 10 100 15 ; BB-BB-SC
 6  9 10 10 100 15 ; BB-BB-SC
 9 11 12 10 100 15 ; BB-BB-SC
11 13 14 10 100 15 ; BB-BB-SC
13 15 16 10 100 15 ; BB-BB-SC
15 18 19 10 100 15 ; BB-BB-SC
18 21 22 10 100 15 ; BB-BB-SC
21 23 24 10 100 15 ; BB-BB-SC
23 25 26 10 100 15 ; BB-BB-SC
25 28 29 10 100 15 ; BB-BB-SC
28 30 31 10 100 15 ; BB-BB-SC
30 32 33 10 100 15 ; BB-BB-SC
32 34 35 10 100 15 ; BB-BB-SC
34 37 38 10 100 15 ; BB-BB-SC
37 39 40 10 100 15 ; BB-BB-SC
39 41 42 10 100 15 ; BB-BB-SC
41 43 44 10 100 15 ; BB-BB-SC

; Side chain angles
 2  3  4 2 120.000 50.0
 2  3  5 2 120.000 50.0
 6  7  8 2 180.000 25.0
15 16 17 2 180.000 25.0
18 19 20 2 180.000 25.0
25 26 27 2 180.000 25.0
34 35 36 2 180.000 25.0
43 44 45 2 120.000 50.0
43 44 46 2 120.000 50.0

[ dihedrals ]
 2  6  9 11 1 -120 400 1
 6  9 11 13 1 -120 400 1
 9 11 13 15 1 -120 400 1
11 13 15 18 1 -120 400 1
13 15 18 21 1 -120 400 1
15 18 21 23 1 -120 400 1
18 21 23 25 1 -120 400 1
21 23 25 28 1 -120 400 1
23 25 28 30 1 -120 400 1
25 28 30 32 1 -120 400 1
28 30 32 34 1 -120 400 1
30 32 34 37 1 -120 400 1
32 34 37 39 1 -120 400 1
34 37 39 41 1 -120 400 1

; SC-BB-BB-SC scFix
 3  2  6  7 1 -105.8 75 1 ; SC-BB-BB-SC
 7  6  9 10 1 -140.4 75 1 ; SC-BB-BB-SC
10  9 11 12 1 -118.3 75 1 ; SC-BB-BB-SC
12 11 13 14 1 -146.4 75 1 ; SC-BB-BB-SC
14 13 15 16 1 -128.6 75 1 ; SC-BB-BB-SC
16 15 18 19 1 -125.8 75 1 ; SC-BB-BB-SC
19 18 21 22 1 -118.8 75 1 ; SC-BB-BB-SC
22 21 23 24 1 -137.7 75 1 ; SC-BB-BB-SC
24 23 25 26 1 -146.0 75 1 ; SC-BB-BB-SC
26 25 28 29 1 -117.5 75 1 ; SC-BB-BB-SC
29 28 30 31 1 -152.7 75 1 ; SC-BB-BB-SC
31 30 32 33 1 -118.0 75 1 ; SC-BB-BB-SC
33 32 34 35 1 -138.1 75 1 ; SC-BB-BB-SC
35 34 37 38 1 -142.6 75 1 ; SC-BB-BB-SC
38 37 39 40 1 -146.2 75 1 ; SC-BB-BB-SC
40 39 41 42 1 -155.9 75 1 ; SC-BB-BB-SC
42 41 43 44 1 -156.3 75 1 ; SC-BB-BB-SC

[ exclusions ]
 2  3  4  5 
 3  4  5 
 4  5 
43 44 45 46 
44 45 46 
45 46 

