; This file was generated using the following command:
; /opt/conda/bin/martinize2 -f /work/simulations/solvia_858_run_1/colabfold/best_model.pdb -ff martini3001 -x /work/simulations/solvia_858_run_1/coarse_grain/SOLVIA_858_cg.pdb -o /work/simulations/solvia_858_run_1/coarse_grain/SOLVIA_858.itp -name SOLVIA_858 -cter NH2-ter -maxwarn 1 -cys auto -dssp -p backbone -pf 1000
; martinize with vermouth 0.14.0
; The following sequence of secondary structure 
; was used for the full system:
; CHHHHHHHHHHHHHHHC

; Please cite the following papers:
; Souza, P C T; Alessandri, R; Barnoud, J; Thallmair, S; Faustino, I; Grünewald, F; Patmanidis, I; Abdizadeh, H; Bruininks, B M H; Wassenaar, T A; Kroon, P C; Melcr, J; Nieto, V; Corradi, V; Khan, H M; Domański, J; Javanainen, M; Martinez-Seara, H; Reuter, N; Best, R B; Vattulainen, I; Monticelli, L; Periole, X; Tieleman, D P; de Vries, A H; Marrink, S J;  Nature Methods 2021; 10.1038/s41592-021-01098-3
; McGibbon, R T; Beauchamp, K A; Harrigan, M P; Klein, C; Swails, J M; Hernández, C X; Schwantes, C R; Wang, L; Lane, T J; Pande, V S;  Biophysical Journal 2015; 10.1016/j.bpj.2015.08.015
; Kroon, P C; Grunewald, F; Barnoud, J; van Tilburg, M; Souza, P C; Wassenaar, T A; Marrink, S J;  elife 2024; 10.7554/elife.90627.2

#ifndef POSRES_FC
#define POSRES_FC 1000.0
#endif

[ moleculetype ]
SOLVIA_858 1

[ atoms ]
 1 Q5    1 GLY BB   1   1 
 2 P2    2 LEU BB   2 0.0 
 3 SC2   2 LEU SC1  3 0.0 
 4 P2    3 LEU BB   4 0.0 
 5 SC2   3 LEU SC1  5 0.0 
 6 P2    4 LYS BB   6 0.0 
 7 SC3   4 LYS SC1  7 0.0 
 8 SQ4p  4 LYS SC2  8 1.0 
 9 P2    5 ARG BB   9 0.0 
10 SC3   5 ARG SC1 10 0.0 
11 SQ3p  5 ARG SC2 11 1.0 
12 P2    6 ILE BB  12 0.0 
13 SC2   6 ILE SC1 13 0.0 
14 P2    7 LYS BB  14 0.0 
15 SC3   7 LYS SC1 15 0.0 
16 SQ4p  7 LYS SC2 16 1.0 
17 P2    8 LYS BB  17 0.0 
18 SC3   8 LYS SC1 18 0.0 
19 SQ4p  8 LYS SC2 19 1.0 
20 P2    9 LEU BB  20 0.0 
21 SC2   9 LEU SC1 21 0.0 
22 P2   10 LEU BB  22 0.0 
23 SC2  10 LEU SC1 23 0.0 
24 P2   11 LYS BB  24 0.0 
25 SC3  11 LYS SC1 25 0.0 
26 SQ4p 11 LYS SC2 26 1.0 
27 P2   12 LYS BB  27 0.0 
28 SC3  12 LYS SC1 28 0.0 
29 SQ4p 12 LYS SC2 29 1.0 
30 P2   13 ILE BB  30 0.0 
31 SC2  13 ILE SC1 31 0.0 
32 P2   14 LYS BB  32 0.0 
33 SC3  14 LYS SC1 33 0.0 
34 SQ4p 14 LYS SC2 34 1.0 
35 P2   15 LYS BB  35 0.0 
36 SC3  15 LYS SC1 36 0.0 
37 SQ4p 15 LYS SC2 37 1.0 
38 P2   16 LEU BB  38 0.0 
39 SC2  16 LEU SC1 39 0.0 
40 P6   17 LEU BB  40   0 
41 SC2  17 LEU SC1 41 0.0 

[ position_restraints ]
#ifdef POSRES
 1 1 POSRES_FC POSRES_FC POSRES_FC
 2 1 POSRES_FC POSRES_FC POSRES_FC
 4 1 POSRES_FC POSRES_FC POSRES_FC
 6 1 POSRES_FC POSRES_FC POSRES_FC
 9 1 POSRES_FC POSRES_FC POSRES_FC
12 1 POSRES_FC POSRES_FC POSRES_FC
14 1 POSRES_FC POSRES_FC POSRES_FC
17 1 POSRES_FC POSRES_FC POSRES_FC
20 1 POSRES_FC POSRES_FC POSRES_FC
22 1 POSRES_FC POSRES_FC POSRES_FC
24 1 POSRES_FC POSRES_FC POSRES_FC
27 1 POSRES_FC POSRES_FC POSRES_FC
30 1 POSRES_FC POSRES_FC POSRES_FC
32 1 POSRES_FC POSRES_FC POSRES_FC
35 1 POSRES_FC POSRES_FC POSRES_FC
38 1 POSRES_FC POSRES_FC POSRES_FC
40 1 POSRES_FC POSRES_FC POSRES_FC
#endif

[ bonds ]
; Side chain bonds
 2  3 1 0.363 7500
 4  5 1 0.363 7500
 6  7 1 0.330 5000
 7  8 1 0.360 5000
 9 10 1 0.330 5000
10 11 1 0.380 5000
14 15 1 0.330 5000
15 16 1 0.360 5000
17 18 1 0.330 5000
18 19 1 0.360 5000
20 21 1 0.363 7500
22 23 1 0.363 7500
24 25 1 0.330 5000
25 26 1 0.360 5000
27 28 1 0.330 5000
28 29 1 0.360 5000
32 33 1 0.330 5000
33 34 1 0.360 5000
35 36 1 0.330 5000
36 37 1 0.360 5000
38 39 1 0.363 7500
40 41 1 0.363 7500

#ifdef FLEXIBLE
; Side chain bonds
12 13 1 0.341 1000000
30 31 1 0.341 1000000
#endif

[ constraints ]
; Backbone bonds
 1  2 1 0.33
 2  4 1 0.310
 4  6 1 0.310
 6  9 1 0.310
 9 12 1 0.310
12 14 1 0.310
14 17 1 0.310
17 20 1 0.310
20 22 1 0.310
22 24 1 0.310
24 27 1 0.310
27 30 1 0.310
30 32 1 0.310
32 35 1 0.310
35 38 1 0.310
38 40 1 0.33

#ifndef FLEXIBLE
; Side chain bonds
12 13 1 0.341
30 31 1 0.341
#endif

[ angles ]
; BBB angles
 1  2  4 10 127 20
 2  4  6 2 96 700
 4  6  9 2 96 700
 6  9 12 2 96 700
 9 12 14 2 96 700
12 14 17 2 96 700
14 17 20 2 96 700
17 20 22 2 96 700
20 22 24 2 96 700
22 24 27 2 96 700
24 27 30 2 96 700
27 30 32 2 96 700
30 32 35 2 96 700
32 35 38 2 96 700
35 38 40 10 127 20

; BBS angles regular martini
 1  2  3 2 100 25
 2  4  5 2 100 25
 4  6  7 2 100 25
 6  9 10 2 100 25
 9 12 13 2 100 25
12 14 15 2 100 25
14 17 18 2 100 25
17 20 21 2 100 25
20 22 23 2 100 25
22 24 25 2 100 25
24 27 28 2 100 25
27 30 31 2 100 25
30 32 33 2 100 25
32 35 36 2 100 25
35 38 39 2 100 25
38 40 41 2 100 25

; SC-BB-BB and BB-BB-SC scFix
 3  2  4 10 100 15 ; SC-BB-BB
 5  4  6 10 100 15 ; SC-BB-BB
 7  6  9 10 100 15 ; SC-BB-BB
10  9 12 10 100 15 ; SC-BB-BB
13 12 14 10 100 15 ; SC-BB-BB
15 14 17 10 100 15 ; SC-BB-BB
18 17 20 10 100 15 ; SC-BB-BB
21 20 22 10 100 15 ; SC-BB-BB
23 22 24 10 100 15 ; SC-BB-BB
25 24 27 10 100 15 ; SC-BB-BB
28 27 30 10 100 15 ; SC-BB-BB
31 30 32 10 100 15 ; SC-BB-BB
33 32 35 10 100 15 ; SC-BB-BB
36 35 38 10 100 15 ; SC-BB-BB
39 38 40 10 100 15 ; SC-BB-BB
 1  2  3 10 100 15 ; BB-BB-SC
 2  4  5 10 100 15 ; BB-BB-SC
 4  6  7 10 100 15 ; BB-BB-SC
 6  9 10 10 100 15 ; BB-BB-SC
 9 12 13 10 100 15 ; BB-BB-SC
12 14 15 10 100 15 ; BB-BB-SC
14 17 18 10 100 15 ; BB-BB-SC
17 20 21 10 100 15 ; BB-BB-SC
20 22 23 10 100 15 ; BB-BB-SC
22 24 25 10 100 15 ; BB-BB-SC
24 27 28 10 100 15 ; BB-BB-SC
27 30 31 10 100 15 ; BB-BB-SC
30 32 33 10 100 15 ; BB-BB-SC
32 35 36 10 100 15 ; BB-BB-SC
35 38 39 10 100 15 ; BB-BB-SC
38 40 41 10 100 15 ; BB-BB-SC

; Side chain angles
 6  7  8 2 180.000 25.0
 9 10 11 2 180.000 25.0
14 15 16 2 180.000 25.0
17 18 19 2 180.000 25.0
24 25 26 2 180.000 25.0
27 28 29 2 180.000 25.0
32 33 34 2 180.000 25.0
35 36 37 2 180.000 25.0

[ dihedrals ]
 2  4  6  9 1 -120 400 1
 4  6  9 12 1 -120 400 1
 6  9 12 14 1 -120 400 1
 9 12 14 17 1 -120 400 1
12 14 17 20 1 -120 400 1
14 17 20 22 1 -120 400 1
17 20 22 24 1 -120 400 1
20 22 24 27 1 -120 400 1
22 24 27 30 1 -120 400 1
24 27 30 32 1 -120 400 1
27 30 32 35 1 -120 400 1
30 32 35 38 1 -120 400 1

; SC-BB-BB-SC scFix
 3  2  4  5 1 -132.4 75 1 ; SC-BB-BB-SC
 5  4  6  7 1 -140.0 75 1 ; SC-BB-BB-SC
 7  6  9 10 1 -142.4 75 1 ; SC-BB-BB-SC
10  9 12 13 1 -149.3 75 1 ; SC-BB-BB-SC
13 12 14 15 1 -135.2 75 1 ; SC-BB-BB-SC
15 14 17 18 1 -125.8 75 1 ; SC-BB-BB-SC
18 17 20 21 1 -144.7 75 1 ; SC-BB-BB-SC
21 20 22 23 1 -125.3 75 1 ; SC-BB-BB-SC
23 22 24 25 1 -136.2 75 1 ; SC-BB-BB-SC
25 24 27 28 1 -145.0 75 1 ; SC-BB-BB-SC
28 27 30 31 1 -147.9 75 1 ; SC-BB-BB-SC
31 30 32 33 1 -137.1 75 1 ; SC-BB-BB-SC
33 32 35 36 1 -125.1 75 1 ; SC-BB-BB-SC
36 35 38 39 1 -138.0 75 1 ; SC-BB-BB-SC
39 38 40 41 1 -145.0 75 1 ; SC-BB-BB-SC

