; This file was generated using the following command:
; /opt/conda/bin/martinize2 -f /work/simulations/solvia_302_run_1/colabfold/best_model.pdb -ff martini3001 -x /work/simulations/solvia_302_run_1/coarse_grain/SOLVIA_302_cg.pdb -o /work/simulations/solvia_302_run_1/coarse_grain/SOLVIA_302.itp -name SOLVIA_302 -cter NH2-ter -maxwarn 1 -cys auto -dssp -p backbone -pf 1000
; martinize with vermouth 0.15.0
; The following sequence of secondary structure 
; was used for the full system:
; CHHHHHHHHHHHHHHHHC

; Please cite the following papers:
; Kroon, P C; Grunewald, F; Barnoud, J; van Tilburg, M; Souza, P C; Wassenaar, T A; Marrink, S J;  elife 2024; 10.7554/elife.90627.2
; McGibbon, R T; Beauchamp, K A; Harrigan, M P; Klein, C; Swails, J M; Hernández, C X; Schwantes, C R; Wang, L; Lane, T J; Pande, V S;  Biophysical Journal 2015; 10.1016/j.bpj.2015.08.015
; Souza, P C T; Alessandri, R; Barnoud, J; Thallmair, S; Faustino, I; Grünewald, F; Patmanidis, I; Abdizadeh, H; Bruininks, B M H; Wassenaar, T A; Kroon, P C; Melcr, J; Nieto, V; Corradi, V; Khan, H M; Domański, J; Javanainen, M; Martinez-Seara, H; Reuter, N; Best, R B; Vattulainen, I; Monticelli, L; Periole, X; Tieleman, D P; de Vries, A H; Marrink, S J;  Nature Methods 2021; 10.1038/s41592-021-01098-3

#ifndef POSRES_FC
#define POSRES_FC 1000.0
#endif

[ moleculetype ]
SOLVIA_302 1

[ atoms ]
 1 Q5    1 TYR BB   1   1 
 2 TC4   1 TYR SC1  2 0.0 
 3 TC5   1 TYR SC2  3 0.0 
 4 TC5   1 TYR SC3  4 0.0 
 5 TN6   1 TYR SC4  5 0.0 
 6 P2    2 LYS BB   6 0.0 
 7 SC3   2 LYS SC1  7 0.0 
 8 SQ4p  2 LYS SC2  8 1.0 
 9 P2    3 LEU BB   9 0.0 
10 SC2   3 LEU SC1 10 0.0 
11 P2    4 LEU BB  11 0.0 
12 SC2   4 LEU SC1 12 0.0 
13 P2    5 LYS BB  13 0.0 
14 SC3   5 LYS SC1 14 0.0 
15 SQ4p  5 LYS SC2 15 1.0 
16 P2    6 LEU BB  16 0.0 
17 SC2   6 LEU SC1 17 0.0 
18 P2    7 LEU BB  18 0.0 
19 SC2   7 LEU SC1 19 0.0 
20 P2    8 LEU BB  20 0.0 
21 SC2   8 LEU SC1 21 0.0 
22 SP2a  9 PRO BB  22 0.0 
23 SC3   9 PRO SC1 23 0.0 
24 P2   10 LYS BB  24 0.0 
25 SC3  10 LYS SC1 25 0.0 
26 SQ4p 10 LYS SC2 26 1.0 
27 P2   11 LEU BB  27 0.0 
28 SC2  11 LEU SC1 28 0.0 
29 P2   12 LYS BB  29 0.0 
30 SC3  12 LYS SC1 30 0.0 
31 SQ4p 12 LYS SC2 31 1.0 
32 SP2a 13 PRO BB  32 0.0 
33 SC3  13 PRO SC1 33 0.0 
34 P2   14 LEU BB  34 0.0 
35 SC2  14 LEU SC1 35 0.0 
36 P2   15 LEU BB  36 0.0 
37 SC2  15 LEU SC1 37 0.0 
38 P2   16 ILE BB  38 0.0 
39 SC2  16 ILE SC1 39 0.0 
40 P2   17 LYS BB  40 0.0 
41 SC3  17 LYS SC1 41 0.0 
42 SQ4p 17 LYS SC2 42 1.0 
43 P6   18 LEU BB  43   0 
44 SC2  18 LEU SC1 44 0.0 

[ position_restraints ]
#ifdef POSRES
 1 1 POSRES_FC POSRES_FC POSRES_FC
 6 1 POSRES_FC POSRES_FC POSRES_FC
 9 1 POSRES_FC POSRES_FC POSRES_FC
11 1 POSRES_FC POSRES_FC POSRES_FC
13 1 POSRES_FC POSRES_FC POSRES_FC
16 1 POSRES_FC POSRES_FC POSRES_FC
18 1 POSRES_FC POSRES_FC POSRES_FC
20 1 POSRES_FC POSRES_FC POSRES_FC
22 1 POSRES_FC POSRES_FC POSRES_FC
24 1 POSRES_FC POSRES_FC POSRES_FC
27 1 POSRES_FC POSRES_FC POSRES_FC
29 1 POSRES_FC POSRES_FC POSRES_FC
32 1 POSRES_FC POSRES_FC POSRES_FC
34 1 POSRES_FC POSRES_FC POSRES_FC
36 1 POSRES_FC POSRES_FC POSRES_FC
38 1 POSRES_FC POSRES_FC POSRES_FC
40 1 POSRES_FC POSRES_FC POSRES_FC
43 1 POSRES_FC POSRES_FC POSRES_FC
#endif

[ bonds ]
; Side chain bonds
 1  2 1 0.325 5000
 6  7 1 0.330 5000
 7  8 1 0.360 5000
 9 10 1 0.363 7500
11 12 1 0.363 7500
13 14 1 0.330 5000
14 15 1 0.360 5000
16 17 1 0.363 7500
18 19 1 0.363 7500
20 21 1 0.363 7500
22 23 1 0.330 7500
24 25 1 0.330 5000
25 26 1 0.360 5000
27 28 1 0.363 7500
29 30 1 0.330 5000
30 31 1 0.360 5000
32 33 1 0.330 7500
34 35 1 0.363 7500
36 37 1 0.363 7500
40 41 1 0.330 5000
41 42 1 0.360 5000
43 44 1 0.363 7500

#ifdef FLEXIBLE
; Side chain bonds
 2  3 1 0.300 1000000
 2  4 1 0.300 1000000
 3  4 1 0.300 1000000
 3  5 1 0.285 1000000
 4  5 1 0.285 1000000
38 39 1 0.341 1000000
#endif

[ constraints ]
; Backbone bonds
 1  6 1 0.33
 6  9 1 0.310
 9 11 1 0.310
11 13 1 0.310
13 16 1 0.310
16 18 1 0.310
18 20 1 0.310
20 22 1 0.310
22 24 1 0.310
24 27 1 0.310
27 29 1 0.310
29 32 1 0.310
32 34 1 0.310
34 36 1 0.310
36 38 1 0.310
38 40 1 0.310
40 43 1 0.33

#ifndef FLEXIBLE
; Side chain bonds
 2  3 1 0.300
 2  4 1 0.300
 3  4 1 0.300
 3  5 1 0.285
 4  5 1 0.285
38 39 1 0.341
#endif

[ angles ]
; BBB angles
 1  6  9 10 127 20
 6  9 11 2 96 700
 9 11 13 2 96 700
11 13 16 2 96 700
13 16 18 2 96 700
16 18 20 2 96 700
18 20 22 10 98 100
20 22 24 10 98 100
22 24 27 10 98 100
24 27 29 2 96 700
27 29 32 10 98 100
29 32 34 10 98 100
32 34 36 10 98 100
34 36 38 2 96 700
36 38 40 2 96 700
38 40 43 10 127 20

; BBS angles regular martini
 1  6  7 2 100 25
 6  9 10 2 100 25
 9 11 12 2 100 25
11 13 14 2 100 25
13 16 17 2 100 25
16 18 19 2 100 25
18 20 21 2 100 25
20 22 23 2 100 25
22 24 25 2 100 25
24 27 28 2 100 25
27 29 30 2 100 25
29 32 33 2 100 25
32 34 35 2 100 25
34 36 37 2 100 25
36 38 39 2 100 25
38 40 41 2 100 25
40 43 44 2 100 25

; First SBB regular martini
 2  1  6 2 100 25

; SC-BB-BB and BB-BB-SC scFix
 2  1  6 10 100 15 ; SC-BB-BB
 1  6  7 10 100 15 ; BB-BB-SC
 7  6  9 10 100 15 ; SC-BB-BB
 6  9 10 10 100 15 ; BB-BB-SC
10  9 11 10 100 15 ; SC-BB-BB
 9 11 12 10 100 15 ; BB-BB-SC
12 11 13 10 100 15 ; SC-BB-BB
11 13 14 10 100 15 ; BB-BB-SC
14 13 16 10 100 15 ; SC-BB-BB
13 16 17 10 100 15 ; BB-BB-SC
17 16 18 10 100 15 ; SC-BB-BB
16 18 19 10 100 15 ; BB-BB-SC
19 18 20 10 100 15 ; SC-BB-BB
18 20 21 10 100 15 ; BB-BB-SC
21 20 22 10 100 15 ; SC-BB-BB
20 22 23 10 100 15 ; BB-BB-SC
23 22 24 10 100 15 ; SC-BB-BB
22 24 25 10 100 15 ; BB-BB-SC
25 24 27 10 100 15 ; SC-BB-BB
24 27 28 10 100 15 ; BB-BB-SC
28 27 29 10 100 15 ; SC-BB-BB
27 29 30 10 100 15 ; BB-BB-SC
30 29 32 10 100 15 ; SC-BB-BB
29 32 33 10 100 15 ; BB-BB-SC
33 32 34 10 100 15 ; SC-BB-BB
32 34 35 10 100 15 ; BB-BB-SC
35 34 36 10 100 15 ; SC-BB-BB
34 36 37 10 100 15 ; BB-BB-SC
37 36 38 10 100 15 ; SC-BB-BB
36 38 39 10 100 15 ; BB-BB-SC
39 38 40 10 100 15 ; SC-BB-BB
38 40 41 10 100 15 ; BB-BB-SC
41 40 43 10 100 15 ; SC-BB-BB
40 43 44 10 100 15 ; BB-BB-SC

; Side chain angles
 1  2  3 2 120.000 60.0
 1  2  4 2 120.000 60.0
 6  7  8 2 180.000 25.0
13 14 15 2 180.000 25.0
24 25 26 2 180.000 25.0
29 30 31 2 180.000 25.0
40 41 42 2 180.000 25.0

[ dihedrals ]
 6  9 11 13 1 -120 400 1
 9 11 13 16 1 -120 400 1
11 13 16 18 1 -120 400 1
13 16 18 20 1 -120 400 1
16 18 20 22 1 -120 400 1
18 20 22 24 1 -120 400 1
20 22 24 27 1 -120 400 1
22 24 27 29 1 -120 400 1
24 27 29 32 1 -120 400 1
27 29 32 34 1 -120 400 1
29 32 34 36 1 -120 400 1
32 34 36 38 1 -120 400 1
34 36 38 40 1 -120 400 1

; SC-BB-BB-SC scFix
 2  1  6  7 1 -130.0 75 1 ; SC-BB-BB-SC
 7  6  9 10 1 -134.2 75 1 ; SC-BB-BB-SC
10  9 11 12 1 -123.6 75 1 ; SC-BB-BB-SC
12 11 13 14 1 -135.7 75 1 ; SC-BB-BB-SC
14 13 16 17 1 -120.8 75 1 ; SC-BB-BB-SC
17 16 18 19 1 -151.2 75 1 ; SC-BB-BB-SC
19 18 20 21 1 -119.5 75 1 ; SC-BB-BB-SC
21 20 22 23 1 -110.4 75 1 ; SC-BB-BB-SC
23 22 24 25 1 165.1 75 1 ; SC-BB-BB-SC
25 24 27 28 1 -144.8 75 1 ; SC-BB-BB-SC
28 27 29 30 1 -140.5 75 1 ; SC-BB-BB-SC
30 29 32 33 1 -119.3 75 1 ; SC-BB-BB-SC
33 32 34 35 1 170.7 75 1 ; SC-BB-BB-SC
35 34 36 37 1 -131.7 75 1 ; SC-BB-BB-SC
37 36 38 39 1 -152.9 75 1 ; SC-BB-BB-SC
39 38 40 41 1 -150.4 75 1 ; SC-BB-BB-SC
41 40 43 44 1 -128.9 75 1 ; SC-BB-BB-SC

[ dihedrals ]
 5  3  4  2 2 180.0 50.0

[ exclusions ]
 1  2  3  4  5 
 2  3  4  5 
 3  4  5 
 4  5 

