; This file was generated using the following command:
; /opt/conda/bin/martinize2 -f /work/simulations/solvia_1743_run_1/colabfold/best_model.pdb -ff martini3001 -x /work/simulations/solvia_1743_run_1/coarse_grain/SOLVIA_1743_cg.pdb -o /work/simulations/solvia_1743_run_1/coarse_grain/SOLVIA_1743.itp -name SOLVIA_1743 -cter NH2-ter -maxwarn 1 -cys auto -dssp -p backbone -pf 1000
; martinize with vermouth 0.15.0
; The following sequence of secondary structure 
; was used for the full system:
; CHHHHHHHHHHHHHHHHHHHHHHHC

; Please cite the following papers:
; McGibbon, R T; Beauchamp, K A; Harrigan, M P; Klein, C; Swails, J M; Hernández, C X; Schwantes, C R; Wang, L; Lane, T J; Pande, V S;  Biophysical Journal 2015; 10.1016/j.bpj.2015.08.015
; Kroon, P C; Grunewald, F; Barnoud, J; van Tilburg, M; Souza, P C; Wassenaar, T A; Marrink, S J;  elife 2024; 10.7554/elife.90627.2
; Souza, P C T; Alessandri, R; Barnoud, J; Thallmair, S; Faustino, I; Grünewald, F; Patmanidis, I; Abdizadeh, H; Bruininks, B M H; Wassenaar, T A; Kroon, P C; Melcr, J; Nieto, V; Corradi, V; Khan, H M; Domański, J; Javanainen, M; Martinez-Seara, H; Reuter, N; Best, R B; Vattulainen, I; Monticelli, L; Periole, X; Tieleman, D P; de Vries, A H; Marrink, S J;  Nature Methods 2021; 10.1038/s41592-021-01098-3

#ifndef POSRES_FC
#define POSRES_FC 1000.0
#endif

[ moleculetype ]
SOLVIA_1743 1

[ atoms ]
 1 Q5    1 GLY BB   1    1 
 2 SP2   2 VAL BB   2  0.0 
 3 SC3   2 VAL SC1  3  0.0 
 4 P2    3 LEU BB   4  0.0 
 5 SC2   3 LEU SC1  5  0.0 
 6 P2    4 GLU BB   6  0.0 
 7 Q5n   4 GLU SC1  7 -1.0 
 8 P2    5 ILE BB   8  0.0 
 9 SC2   5 ILE SC1  9  0.0 
10 P2    6 LEU BB  10  0.0 
11 SC2   6 LEU SC1 11  0.0 
12 P2    7 LYS BB  12  0.0 
13 SC3   7 LYS SC1 13  0.0 
14 SQ4p  7 LYS SC2 14  1.0 
15 P2    8 SER BB  15  0.0 
16 TP1   8 SER SC1 16  0.0 
17 SP2   9 ALA BB  17  0.0 
18 TC3   9 ALA SC1 18  0.0 
19 SP2  10 ALA BB  19  0.0 
20 TC3  10 ALA SC1 20  0.0 
21 P2   11 LYS BB  21  0.0 
22 SC3  11 LYS SC1 22  0.0 
23 SQ4p 11 LYS SC2 23  1.0 
24 P2   12 ASP BB  24  0.0 
25 SQ5n 12 ASP SC1 25 -1.0 
26 P2   13 LEU BB  26  0.0 
27 SC2  13 LEU SC1 27  0.0 
28 SP2  14 ALA BB  28  0.0 
29 TC3  14 ALA SC1 29  0.0 
30 SP1  15 GLY BB  30  0.0 
31 P2   16 HIS BB  31  0.0 
32 TC4  16 HIS SC1 32  0.0 
33 TN6d 16 HIS SC2 33  0.0 
34 TN5a 16 HIS SC3 34  0.0 
35 SP2  17 VAL BB  35  0.0 
36 SC3  17 VAL SC1 36  0.0 
37 SP2  18 ALA BB  37  0.0 
38 TC3  18 ALA SC1 38  0.0 
39 P2   19 THR BB  39  0.0 
40 SP1  19 THR SC1 40  0.0 
41 P2   20 LYS BB  41  0.0 
42 SC3  20 LYS SC1 42  0.0 
43 SQ4p 20 LYS SC2 43  1.0 
44 SP2  21 VAL BB  44  0.0 
45 SC3  21 VAL SC1 45  0.0 
46 P2   22 ILE BB  46  0.0 
47 SC2  22 ILE SC1 47  0.0 
48 P2   23 LYS BB  48  0.0 
49 SC3  23 LYS SC1 49  0.0 
50 SQ4p 23 LYS SC2 50  1.0 
51 P2   24 LYS BB  51  0.0 
52 SC3  24 LYS SC1 52  0.0 
53 SQ4p 24 LYS SC2 53  1.0 
54 P6   25 ILE BB  54    0 
55 SC2  25 ILE SC1 55  0.0 

[ position_restraints ]
#ifdef POSRES
 1 1 POSRES_FC POSRES_FC POSRES_FC
 2 1 POSRES_FC POSRES_FC POSRES_FC
 4 1 POSRES_FC POSRES_FC POSRES_FC
 6 1 POSRES_FC POSRES_FC POSRES_FC
 8 1 POSRES_FC POSRES_FC POSRES_FC
10 1 POSRES_FC POSRES_FC POSRES_FC
12 1 POSRES_FC POSRES_FC POSRES_FC
15 1 POSRES_FC POSRES_FC POSRES_FC
17 1 POSRES_FC POSRES_FC POSRES_FC
19 1 POSRES_FC POSRES_FC POSRES_FC
21 1 POSRES_FC POSRES_FC POSRES_FC
24 1 POSRES_FC POSRES_FC POSRES_FC
26 1 POSRES_FC POSRES_FC POSRES_FC
28 1 POSRES_FC POSRES_FC POSRES_FC
30 1 POSRES_FC POSRES_FC POSRES_FC
31 1 POSRES_FC POSRES_FC POSRES_FC
35 1 POSRES_FC POSRES_FC POSRES_FC
37 1 POSRES_FC POSRES_FC POSRES_FC
39 1 POSRES_FC POSRES_FC POSRES_FC
41 1 POSRES_FC POSRES_FC POSRES_FC
44 1 POSRES_FC POSRES_FC POSRES_FC
46 1 POSRES_FC POSRES_FC POSRES_FC
48 1 POSRES_FC POSRES_FC POSRES_FC
51 1 POSRES_FC POSRES_FC POSRES_FC
54 1 POSRES_FC POSRES_FC POSRES_FC
#endif

[ bonds ]
; Side chain bonds
 4  5 1 0.363 7500
 6  7 1 0.400 5000
10 11 1 0.363 7500
12 13 1 0.330 5000
13 14 1 0.360 5000
15 16 1 0.287 7500
21 22 1 0.330 5000
22 23 1 0.360 5000
24 25 1 0.352 7500
26 27 1 0.363 7500
31 32 1 0.336 7500
41 42 1 0.330 5000
42 43 1 0.360 5000
48 49 1 0.330 5000
49 50 1 0.360 5000
51 52 1 0.330 5000
52 53 1 0.360 5000

#ifdef FLEXIBLE
; Side chain bonds
 2  3 1 0.292 1000000
 8  9 1 0.341 1000000
17 18 1 0.270 1000000
19 20 1 0.270 1000000
28 29 1 0.270 1000000
32 33 1 0.320 1000000
32 34 1 0.300 1000000
33 34 1 0.270 1000000
35 36 1 0.292 1000000
37 38 1 0.270 1000000
39 40 1 0.305 1000000
44 45 1 0.292 1000000
46 47 1 0.341 1000000
54 55 1 0.341 1000000
#endif

[ constraints ]
; Backbone bonds
 1  2 1 0.33
 2  4 1 0.310
 4  6 1 0.310
 6  8 1 0.310
 8 10 1 0.310
10 12 1 0.310
12 15 1 0.310
15 17 1 0.310
17 19 1 0.310
19 21 1 0.310
21 24 1 0.310
24 26 1 0.310
26 28 1 0.310
28 30 1 0.310
30 31 1 0.310
31 35 1 0.310
35 37 1 0.310
37 39 1 0.310
39 41 1 0.310
41 44 1 0.310
44 46 1 0.310
46 48 1 0.310
48 51 1 0.310
51 54 1 0.33

#ifndef FLEXIBLE
; Side chain bonds
 2  3 1 0.292
 8  9 1 0.341
17 18 1 0.270
19 20 1 0.270
28 29 1 0.270
32 33 1 0.320
32 34 1 0.300
33 34 1 0.270
35 36 1 0.292
37 38 1 0.270
39 40 1 0.305
44 45 1 0.292
46 47 1 0.341
54 55 1 0.341
#endif

[ angles ]
; BBB angles
 1  2  4 10 127 20
 2  4  6 2 96 700
 4  6  8 2 96 700
 6  8 10 2 96 700
 8 10 12 2 96 700
10 12 15 2 96 700
12 15 17 2 96 700
15 17 19 2 96 700
17 19 21 2 96 700
19 21 24 2 96 700
21 24 26 2 96 700
24 26 28 2 96 700
26 28 30 2 96 700
28 30 31 2 96 700
30 31 35 2 96 700
31 35 37 2 96 700
35 37 39 2 96 700
37 39 41 2 96 700
39 41 44 2 96 700
41 44 46 2 96 700
44 46 48 2 96 700
46 48 51 2 96 700
48 51 54 10 127 20

; BBS angles regular martini
 1  2  3 2 100 25
 2  4  5 2 100 25
 4  6  7 2 100 25
 6  8  9 2 100 25
 8 10 11 2 100 25
10 12 13 2 100 25
12 15 16 2 100 25
15 17 18 2 100 25
17 19 20 2 100 25
19 21 22 2 100 25
21 24 25 2 100 25
24 26 27 2 100 25
26 28 29 2 100 25
30 31 32 2 100 25
31 35 36 2 100 25
35 37 38 2 100 25
37 39 40 2 100 25
39 41 42 2 100 25
41 44 45 2 100 25
44 46 47 2 100 25
46 48 49 2 100 25
48 51 52 2 100 25
51 54 55 2 100 25

; SC-BB-BB and BB-BB-SC scFix
 1  2  3 10 100 15 ; BB-BB-SC
 3  2  4 10 100 15 ; SC-BB-BB
 2  4  5 10 100 15 ; BB-BB-SC
 5  4  6 10 100 15 ; SC-BB-BB
 4  6  7 10 100 15 ; BB-BB-SC
 7  6  8 10 100 15 ; SC-BB-BB
 6  8  9 10 100 15 ; BB-BB-SC
 9  8 10 10 100 15 ; SC-BB-BB
 8 10 11 10 100 15 ; BB-BB-SC
11 10 12 10 100 15 ; SC-BB-BB
10 12 13 10 100 15 ; BB-BB-SC
13 12 15 10 100 15 ; SC-BB-BB
12 15 16 10 100 15 ; BB-BB-SC
16 15 17 10 100 15 ; SC-BB-BB
15 17 18 10 100 15 ; BB-BB-SC
18 17 19 10 100 15 ; SC-BB-BB
17 19 20 10 100 15 ; BB-BB-SC
20 19 21 10 100 15 ; SC-BB-BB
19 21 22 10 100 15 ; BB-BB-SC
22 21 24 10 100 15 ; SC-BB-BB
21 24 25 10 100 15 ; BB-BB-SC
25 24 26 10 100 15 ; SC-BB-BB
24 26 27 10 100 15 ; BB-BB-SC
27 26 28 10 100 15 ; SC-BB-BB
26 28 29 10 100 15 ; BB-BB-SC
29 28 30 10 100 15 ; SC-BB-BB
30 31 32 10 100 15 ; BB-BB-SC
32 31 35 10 100 15 ; SC-BB-BB
31 35 36 10 100 15 ; BB-BB-SC
36 35 37 10 100 15 ; SC-BB-BB
35 37 38 10 100 15 ; BB-BB-SC
38 37 39 10 100 15 ; SC-BB-BB
37 39 40 10 100 15 ; BB-BB-SC
40 39 41 10 100 15 ; SC-BB-BB
39 41 42 10 100 15 ; BB-BB-SC
42 41 44 10 100 15 ; SC-BB-BB
41 44 45 10 100 15 ; BB-BB-SC
45 44 46 10 100 15 ; SC-BB-BB
44 46 47 10 100 15 ; BB-BB-SC
47 46 48 10 100 15 ; SC-BB-BB
46 48 49 10 100 15 ; BB-BB-SC
49 48 51 10 100 15 ; SC-BB-BB
48 51 52 10 100 15 ; BB-BB-SC
52 51 54 10 100 15 ; SC-BB-BB
51 54 55 10 100 15 ; BB-BB-SC

; Side chain angles
12 13 14 2 180.000 25.0
21 22 23 2 180.000 25.0
31 32 33 2 120.000 50.0
31 32 34 2 120.000 50.0
41 42 43 2 180.000 25.0
48 49 50 2 180.000 25.0
51 52 53 2 180.000 25.0

[ dihedrals ]
 2  4  6  8 1 -120 400 1
 4  6  8 10 1 -120 400 1
 6  8 10 12 1 -120 400 1
 8 10 12 15 1 -120 400 1
10 12 15 17 1 -120 400 1
12 15 17 19 1 -120 400 1
15 17 19 21 1 -120 400 1
17 19 21 24 1 -120 400 1
19 21 24 26 1 -120 400 1
21 24 26 28 1 -120 400 1
24 26 28 30 1 -120 400 1
26 28 30 31 1 -120 400 1
28 30 31 35 1 -120 400 1
30 31 35 37 1 -120 400 1
31 35 37 39 1 -120 400 1
35 37 39 41 1 -120 400 1
37 39 41 44 1 -120 400 1
39 41 44 46 1 -120 400 1
41 44 46 48 1 -120 400 1
44 46 48 51 1 -120 400 1

; SC-BB-BB-SC scFix
 3  2  4  5 1 -137.4 75 1 ; SC-BB-BB-SC
 5  4  6  7 1 -168.7 75 1 ; SC-BB-BB-SC
 7  6  8  9 1 -106.3 75 1 ; SC-BB-BB-SC
 9  8 10 11 1 -147.9 75 1 ; SC-BB-BB-SC
11 10 12 13 1 -120.9 75 1 ; SC-BB-BB-SC
13 12 15 16 1 -143.4 75 1 ; SC-BB-BB-SC
16 15 17 18 1 -120.5 75 1 ; SC-BB-BB-SC
18 17 19 20 1 -139.8 75 1 ; SC-BB-BB-SC
20 19 21 22 1 -145.9 75 1 ; SC-BB-BB-SC
22 21 24 25 1 -129.4 75 1 ; SC-BB-BB-SC
25 24 26 27 1 -123.0 75 1 ; SC-BB-BB-SC
27 26 28 29 1 -109.2 75 1 ; SC-BB-BB-SC
28 30 31 32 1 97.5 75 1 ; BB-BB-BB-SC
29 28 30 31 1 -3.7 75 1 ; SC-BB-BB-BB
32 31 35 36 1 -135.8 75 1 ; SC-BB-BB-SC
36 35 37 38 1 -126.5 75 1 ; SC-BB-BB-SC
38 37 39 40 1 -148.6 75 1 ; SC-BB-BB-SC
40 39 41 42 1 -144.5 75 1 ; SC-BB-BB-SC
42 41 44 45 1 -137.8 75 1 ; SC-BB-BB-SC
45 44 46 47 1 -140.7 75 1 ; SC-BB-BB-SC
47 46 48 49 1 -144.1 75 1 ; SC-BB-BB-SC
49 48 51 52 1 -131.3 75 1 ; SC-BB-BB-SC
52 51 54 55 1 -129.0 75 1 ; SC-BB-BB-SC

[ exclusions ]
31 32 33 34 
32 33 34 
33 34 

