; This file was generated using the following command:
; /opt/conda/bin/martinize2 -f /work/simulations/solvia_8_run_1/colabfold/best_model.pdb -ff martini3001 -x /work/simulations/solvia_8_run_1/coarse_grain/SOLVIA_8_cg.pdb -o /work/simulations/solvia_8_run_1/coarse_grain/SOLVIA_8.itp -name SOLVIA_8 -cter NH2-ter -maxwarn 1 -cys auto -dssp -p backbone -pf 1000
; martinize with vermouth 0.14.0
; The following sequence of secondary structure 
; was used for the full system:
; CHHHHHHHHHHHHHHHHHHHHHHHHC

; Please cite the following papers:
; Souza, P C T; Alessandri, R; Barnoud, J; Thallmair, S; Faustino, I; Grünewald, F; Patmanidis, I; Abdizadeh, H; Bruininks, B M H; Wassenaar, T A; Kroon, P C; Melcr, J; Nieto, V; Corradi, V; Khan, H M; Domański, J; Javanainen, M; Martinez-Seara, H; Reuter, N; Best, R B; Vattulainen, I; Monticelli, L; Periole, X; Tieleman, D P; de Vries, A H; Marrink, S J;  Nature Methods 2021; 10.1038/s41592-021-01098-3
; McGibbon, R T; Beauchamp, K A; Harrigan, M P; Klein, C; Swails, J M; Hernández, C X; Schwantes, C R; Wang, L; Lane, T J; Pande, V S;  Biophysical Journal 2015; 10.1016/j.bpj.2015.08.015
; Kroon, P C; Grunewald, F; Barnoud, J; van Tilburg, M; Souza, P C; Wassenaar, T A; Marrink, S J;  elife 2024; 10.7554/elife.90627.2

#ifndef POSRES_FC
#define POSRES_FC 1000.0
#endif

[ moleculetype ]
SOLVIA_8 1

[ atoms ]
 1 Q5    1 ARG BB   1   1     
 2 SC3   1 ARG SC1  2 0.0     
 3 SQ3p  1 ARG SC2  3 1.0     
 4 SP2   2 VAL BB   4 0.0     
 5 SC3   2 VAL SC1  5 0.0     
 6 P2    3 LYS BB   6 0.0     
 7 SC3   3 LYS SC1  7 0.0     
 8 SQ4p  3 LYS SC2  8 1.0     
 9 P2    4 ARG BB   9 0.0     
10 SC3   4 ARG SC1 10 0.0     
11 SQ3p  4 ARG SC2 11 1.0     
12 SP2   5 VAL BB  12 0.0     
13 SC3   5 VAL SC1 13 0.0     
14 P2    6 TRP BB  14 0.0     
15 TC4   6 TRP SC1 15 0.0 36.0
16 TN6d  6 TRP SC2 16 0.0 36.0
17 TC5   6 TRP SC3 17 0.0  0.0
18 TC5   6 TRP SC4 18 0.0 36.0
19 TC5   6 TRP SC5 19 0.0 36.0
20 SP2a  7 PRO BB  20 0.0     
21 SC3   7 PRO SC1 21 0.0     
22 P2    8 LEU BB  22 0.0     
23 SC2   8 LEU SC1 23 0.0     
24 SP2   9 VAL BB  24 0.0     
25 SC3   9 VAL SC1 25 0.0     
26 P2   10 ILE BB  26 0.0     
27 SC2  10 ILE SC1 27 0.0     
28 P2   11 ARG BB  28 0.0     
29 SC3  11 ARG SC1 29 0.0     
30 SQ3p 11 ARG SC2 30 1.0     
31 P2   12 THR BB  31 0.0     
32 SP1  12 THR SC1 32 0.0     
33 SP2  13 VAL BB  33 0.0     
34 SC3  13 VAL SC1 34 0.0     
35 P2   14 ILE BB  35 0.0     
36 SC2  14 ILE SC1 36 0.0     
37 SP2  15 ALA BB  37 0.0     
38 TC3  15 ALA SC1 38 0.0     
39 SP1  16 GLY BB  39 0.0     
40 P2   17 TYR BB  40 0.0     
41 TC4  17 TYR SC1 41 0.0     
42 TC5  17 TYR SC2 42 0.0     
43 TC5  17 TYR SC3 43 0.0     
44 TN6  17 TYR SC4 44 0.0     
45 P2   18 ASN BB  45 0.0     
46 SP5  18 ASN SC1 46 0.0     
47 P2   19 LEU BB  47 0.0     
48 SC2  19 LEU SC1 48 0.0     
49 P2   20 TYR BB  49 0.0     
50 TC4  20 TYR SC1 50 0.0     
51 TC5  20 TYR SC2 51 0.0     
52 TC5  20 TYR SC3 52 0.0     
53 TN6  20 TYR SC4 53 0.0     
54 P2   21 ARG BB  54 0.0     
55 SC3  21 ARG SC1 55 0.0     
56 SQ3p 21 ARG SC2 56 1.0     
57 SP2  22 ALA BB  57 0.0     
58 TC3  22 ALA SC1 58 0.0     
59 P2   23 ILE BB  59 0.0     
60 SC2  23 ILE SC1 60 0.0     
61 P2   24 LYS BB  61 0.0     
62 SC3  24 LYS SC1 62 0.0     
63 SQ4p 24 LYS SC2 63 1.0     
64 P2   25 LYS BB  64 0.0     
65 SC3  25 LYS SC1 65 0.0     
66 SQ4p 25 LYS SC2 66 1.0     
67 P6   26 LYS BB  67   0     
68 SC3  26 LYS SC1 68 0.0     
69 SQ4p 26 LYS SC2 69 1.0     

[ position_restraints ]
#ifdef POSRES
 1 1 POSRES_FC POSRES_FC POSRES_FC
 4 1 POSRES_FC POSRES_FC POSRES_FC
 6 1 POSRES_FC POSRES_FC POSRES_FC
 9 1 POSRES_FC POSRES_FC POSRES_FC
12 1 POSRES_FC POSRES_FC POSRES_FC
14 1 POSRES_FC POSRES_FC POSRES_FC
20 1 POSRES_FC POSRES_FC POSRES_FC
22 1 POSRES_FC POSRES_FC POSRES_FC
24 1 POSRES_FC POSRES_FC POSRES_FC
26 1 POSRES_FC POSRES_FC POSRES_FC
28 1 POSRES_FC POSRES_FC POSRES_FC
31 1 POSRES_FC POSRES_FC POSRES_FC
33 1 POSRES_FC POSRES_FC POSRES_FC
35 1 POSRES_FC POSRES_FC POSRES_FC
37 1 POSRES_FC POSRES_FC POSRES_FC
39 1 POSRES_FC POSRES_FC POSRES_FC
40 1 POSRES_FC POSRES_FC POSRES_FC
45 1 POSRES_FC POSRES_FC POSRES_FC
47 1 POSRES_FC POSRES_FC POSRES_FC
49 1 POSRES_FC POSRES_FC POSRES_FC
54 1 POSRES_FC POSRES_FC POSRES_FC
57 1 POSRES_FC POSRES_FC POSRES_FC
59 1 POSRES_FC POSRES_FC POSRES_FC
61 1 POSRES_FC POSRES_FC POSRES_FC
64 1 POSRES_FC POSRES_FC POSRES_FC
67 1 POSRES_FC POSRES_FC POSRES_FC
#endif

[ bonds ]
; Side chain bonds
 1  2 1 0.330 5000
 2  3 1 0.380 5000
 6  7 1 0.330 5000
 7  8 1 0.360 5000
 9 10 1 0.330 5000
10 11 1 0.380 5000
14 15 1 0.315 5000
20 21 1 0.330 7500
22 23 1 0.363 7500
28 29 1 0.330 5000
29 30 1 0.380 5000
40 41 1 0.325 5000
45 46 1 0.352 5000
47 48 1 0.363 7500
49 50 1 0.325 5000
54 55 1 0.330 5000
55 56 1 0.380 5000
61 62 1 0.330 5000
62 63 1 0.360 5000
64 65 1 0.330 5000
65 66 1 0.360 5000
67 68 1 0.330 5000
68 69 1 0.360 5000

#ifdef FLEXIBLE
; Side chain bonds
 4  5 1 0.292 1000000
12 13 1 0.292 1000000
15 16 1 0.335 1000000
16 19 1 0.412 1000000
18 19 1 0.293 1000000
15 18 1 0.404 1000000
16 18 1 0.470 1000000
24 25 1 0.292 1000000
26 27 1 0.341 1000000
31 32 1 0.305 1000000
33 34 1 0.292 1000000
35 36 1 0.341 1000000
37 38 1 0.270 1000000
41 42 1 0.300 1000000
41 43 1 0.300 1000000
42 44 1 0.285 1000000
43 44 1 0.285 1000000
42 43 1 0.300 1000000
50 51 1 0.300 1000000
50 52 1 0.300 1000000
51 53 1 0.285 1000000
52 53 1 0.285 1000000
51 52 1 0.300 1000000
57 58 1 0.270 1000000
59 60 1 0.341 1000000
#endif

[ constraints ]
; Backbone bonds
 1  4 1 0.33
 4  6 1 0.310
 6  9 1 0.310
 9 12 1 0.310
12 14 1 0.310
14 20 1 0.310
20 22 1 0.310
22 24 1 0.310
24 26 1 0.310
26 28 1 0.310
28 31 1 0.310
31 33 1 0.310
33 35 1 0.310
35 37 1 0.310
37 39 1 0.310
39 40 1 0.310
40 45 1 0.310
45 47 1 0.310
47 49 1 0.310
49 54 1 0.310
54 57 1 0.310
57 59 1 0.310
59 61 1 0.310
61 64 1 0.310
64 67 1 0.33

#ifndef FLEXIBLE
; Side chain bonds
 4  5 1 0.292
12 13 1 0.292
15 16 1 0.335
16 19 1 0.412
18 19 1 0.293
15 18 1 0.404
16 18 1 0.470
24 25 1 0.292
26 27 1 0.341
31 32 1 0.305
33 34 1 0.292
35 36 1 0.341
37 38 1 0.270
41 42 1 0.300
41 43 1 0.300
42 44 1 0.285
43 44 1 0.285
42 43 1 0.300
50 51 1 0.300
50 52 1 0.300
51 53 1 0.285
52 53 1 0.285
51 52 1 0.300
57 58 1 0.270
59 60 1 0.341
#endif

[ angles ]
; BBB angles
 1  4  6 10 127 20
 4  6  9 2 96 700
 6  9 12 2 96 700
 9 12 14 2 96 700
12 14 20 10 98 100
14 20 22 10 98 100
20 22 24 10 98 100
22 24 26 2 96 700
24 26 28 2 96 700
26 28 31 2 96 700
28 31 33 2 96 700
31 33 35 2 96 700
33 35 37 2 96 700
35 37 39 2 96 700
37 39 40 2 96 700
39 40 45 2 96 700
40 45 47 2 96 700
45 47 49 2 96 700
47 49 54 2 96 700
49 54 57 2 96 700
54 57 59 2 96 700
57 59 61 2 96 700
59 61 64 2 96 700
61 64 67 10 127 20

; BBS angles regular martini
 1  4  5 2 100 25
 4  6  7 2 100 25
 6  9 10 2 100 25
 9 12 13 2 100 25
12 14 15 2 100 25
14 20 21 2 100 25
20 22 23 2 100 25
22 24 25 2 100 25
24 26 27 2 100 25
26 28 29 2 100 25
28 31 32 2 100 25
31 33 34 2 100 25
33 35 36 2 100 25
35 37 38 2 100 25
39 40 41 2 100 25
40 45 46 2 100 25
45 47 48 2 100 25
47 49 50 2 100 25
49 54 55 2 100 25
54 57 58 2 100 25
57 59 60 2 100 25
59 61 62 2 100 25
61 64 65 2 100 25
64 67 68 2 100 25

; First SBB regular martini
 2  1  4 2 100 25

; SC-BB-BB and BB-BB-SC scFix
 2  1  4 10 100 15 ; SC-BB-BB
 5  4  6 10 100 15 ; SC-BB-BB
 7  6  9 10 100 15 ; SC-BB-BB
10  9 12 10 100 15 ; SC-BB-BB
13 12 14 10 100 15 ; SC-BB-BB
15 14 20 10 100 15 ; SC-BB-BB
21 20 22 10 100 15 ; SC-BB-BB
23 22 24 10 100 15 ; SC-BB-BB
25 24 26 10 100 15 ; SC-BB-BB
27 26 28 10 100 15 ; SC-BB-BB
29 28 31 10 100 15 ; SC-BB-BB
32 31 33 10 100 15 ; SC-BB-BB
34 33 35 10 100 15 ; SC-BB-BB
36 35 37 10 100 15 ; SC-BB-BB
38 37 39 10 100 15 ; SC-BB-BB
41 40 45 10 100 15 ; SC-BB-BB
46 45 47 10 100 15 ; SC-BB-BB
48 47 49 10 100 15 ; SC-BB-BB
50 49 54 10 100 15 ; SC-BB-BB
55 54 57 10 100 15 ; SC-BB-BB
58 57 59 10 100 15 ; SC-BB-BB
60 59 61 10 100 15 ; SC-BB-BB
62 61 64 10 100 15 ; SC-BB-BB
65 64 67 10 100 15 ; SC-BB-BB
 1  4  5 10 100 15 ; BB-BB-SC
 4  6  7 10 100 15 ; BB-BB-SC
 6  9 10 10 100 15 ; BB-BB-SC
 9 12 13 10 100 15 ; BB-BB-SC
12 14 15 10 100 15 ; BB-BB-SC
14 20 21 10 100 15 ; BB-BB-SC
20 22 23 10 100 15 ; BB-BB-SC
22 24 25 10 100 15 ; BB-BB-SC
24 26 27 10 100 15 ; BB-BB-SC
26 28 29 10 100 15 ; BB-BB-SC
28 31 32 10 100 15 ; BB-BB-SC
31 33 34 10 100 15 ; BB-BB-SC
33 35 36 10 100 15 ; BB-BB-SC
35 37 38 10 100 15 ; BB-BB-SC
39 40 41 10 100 15 ; BB-BB-SC
40 45 46 10 100 15 ; BB-BB-SC
45 47 48 10 100 15 ; BB-BB-SC
47 49 50 10 100 15 ; BB-BB-SC
49 54 55 10 100 15 ; BB-BB-SC
54 57 58 10 100 15 ; BB-BB-SC
57 59 60 10 100 15 ; BB-BB-SC
59 61 62 10 100 15 ; BB-BB-SC
61 64 65 10 100 15 ; BB-BB-SC
64 67 68 10 100 15 ; BB-BB-SC

; Side chain angles
 1  2  3 2 180.000 25.0
 6  7  8 2 180.000 25.0
 9 10 11 2 180.000 25.0
14 15 16 2 120.000 60.0
14 15 18 2 130.000 60.0
28 29 30 2 180.000 25.0
40 41 42 2 120.000 60.0
40 41 43 2 120.000 60.0
49 50 51 2 120.000 60.0
49 50 52 2 120.000 60.0
54 55 56 2 180.000 25.0
61 62 63 2 180.000 25.0
64 65 66 2 180.000 25.0
67 68 69 2 180.000 25.0

[ dihedrals ]
 4  6  9 12 1 -120 400 1
 6  9 12 14 1 -120 400 1
 9 12 14 20 1 -120 400 1
12 14 20 22 1 -120 400 1
14 20 22 24 1 -120 400 1
20 22 24 26 1 -120 400 1
22 24 26 28 1 -120 400 1
24 26 28 31 1 -120 400 1
26 28 31 33 1 -120 400 1
28 31 33 35 1 -120 400 1
31 33 35 37 1 -120 400 1
33 35 37 39 1 -120 400 1
35 37 39 40 1 -120 400 1
37 39 40 45 1 -120 400 1
39 40 45 47 1 -120 400 1
40 45 47 49 1 -120 400 1
45 47 49 54 1 -120 400 1
47 49 54 57 1 -120 400 1
49 54 57 59 1 -120 400 1
54 57 59 61 1 -120 400 1
57 59 61 64 1 -120 400 1

; SC-BB-BB-SC scFix
 2  1  4  5 1 -115.4 75 1 ; SC-BB-BB-SC
 5  4  6  7 1 -140.4 75 1 ; SC-BB-BB-SC
 7  6  9 10 1 -151.1 75 1 ; SC-BB-BB-SC
10  9 12 13 1 -123.4 75 1 ; SC-BB-BB-SC
13 12 14 15 1 -114.6 75 1 ; SC-BB-BB-SC
15 14 20 21 1 -106.2 75 1 ; SC-BB-BB-SC
21 20 22 23 1 162.6 75 1 ; SC-BB-BB-SC
23 22 24 25 1 -139.7 75 1 ; SC-BB-BB-SC
25 24 26 27 1 -136.2 75 1 ; SC-BB-BB-SC
27 26 28 29 1 -146.2 75 1 ; SC-BB-BB-SC
29 28 31 32 1 -140.1 75 1 ; SC-BB-BB-SC
32 31 33 34 1 -138.3 75 1 ; SC-BB-BB-SC
34 33 35 36 1 -136.5 75 1 ; SC-BB-BB-SC
36 35 37 38 1 -133.6 75 1 ; SC-BB-BB-SC
41 40 45 46 1 -138.6 75 1 ; SC-BB-BB-SC
46 45 47 48 1 -160.7 75 1 ; SC-BB-BB-SC
48 47 49 50 1 -127.3 75 1 ; SC-BB-BB-SC
50 49 54 55 1 -130.8 75 1 ; SC-BB-BB-SC
55 54 57 58 1 -114.6 75 1 ; SC-BB-BB-SC
58 57 59 60 1 -155.4 75 1 ; SC-BB-BB-SC
60 59 61 62 1 -147.4 75 1 ; SC-BB-BB-SC
62 61 64 65 1 -128.6 75 1 ; SC-BB-BB-SC
65 64 67 68 1 -147.4 75 1 ; SC-BB-BB-SC
37 39 40 41 1 100.4 75 1 ; BB-BB-BB-SC
38 37 39 40 1 -5.2 75 1 ; SC-BB-BB-BB

[ dihedrals ]
19 18 16 15 2 180.0 100.0
44 42 43 41 2 180.0 50.0
53 51 52 50 2 180.0 50.0

[ virtual_sitesn ]
17 2 19 18 16 15

[ exclusions ]
14 15 16 17 18 19 
15 16 17 18 19 
16 17 18 19 
17 18 19 
18 19 
40 41 42 43 44 
41 42 43 44 
42 43 44 
43 44 
49 50 51 52 53 
50 51 52 53 
51 52 53 
52 53 

