; This file was generated using the following command:
; /opt/conda/bin/martinize2 -f /work/simulations/solvia_1941_run_1/colabfold/best_model.pdb -ff martini3001 -x /work/simulations/solvia_1941_run_1/coarse_grain/SOLVIA_1941_cg.pdb -o /work/simulations/solvia_1941_run_1/coarse_grain/SOLVIA_1941.itp -name SOLVIA_1941 -cter NH2-ter -maxwarn 1 -cys auto -dssp -p backbone -pf 1000
; martinize with vermouth 0.15.0
; The following sequence of secondary structure 
; was used for the full system:
; CCCCCCCCCCCC

; Please cite the following papers:
; McGibbon, R T; Beauchamp, K A; Harrigan, M P; Klein, C; Swails, J M; Hernández, C X; Schwantes, C R; Wang, L; Lane, T J; Pande, V S;  Biophysical Journal 2015; 10.1016/j.bpj.2015.08.015
; Kroon, P C; Grunewald, F; Barnoud, J; van Tilburg, M; Souza, P C; Wassenaar, T A; Marrink, S J;  elife 2024; 10.7554/elife.90627.2
; Souza, P C T; Alessandri, R; Barnoud, J; Thallmair, S; Faustino, I; Grünewald, F; Patmanidis, I; Abdizadeh, H; Bruininks, B M H; Wassenaar, T A; Kroon, P C; Melcr, J; Nieto, V; Corradi, V; Khan, H M; Domański, J; Javanainen, M; Martinez-Seara, H; Reuter, N; Best, R B; Vattulainen, I; Monticelli, L; Periole, X; Tieleman, D P; de Vries, A H; Marrink, S J;  Nature Methods 2021; 10.1038/s41592-021-01098-3

#ifndef POSRES_FC
#define POSRES_FC 1000.0
#endif

[ moleculetype ]
SOLVIA_1941 1

[ atoms ]
 1 Q5    1 ARG BB   1   1     
 2 SC3   1 ARG SC1  2 0.0     
 3 SQ3p  1 ARG SC2  3 1.0     
 4 P2    2 TRP BB   4 0.0     
 5 TC4   2 TRP SC1  5 0.0 36.0
 6 TN6d  2 TRP SC2  6 0.0 36.0
 7 TC5   2 TRP SC3  7 0.0  0.0
 8 TC5   2 TRP SC4  8 0.0 36.0
 9 TC5   2 TRP SC5  9 0.0 36.0
10 P2    3 ILE BB  10 0.0     
11 SC2   3 ILE SC1 11 0.0     
12 SP2a  4 PRO BB  12 0.0     
13 SC3   4 PRO SC1 13 0.0     
14 P2    5 ARG BB  14 0.0     
15 SC3   5 ARG SC1 15 0.0     
16 SQ3p  5 ARG SC2 16 1.0     
17 P2    6 LEU BB  17 0.0     
18 SC2   6 LEU SC1 18 0.0     
19 P2    7 TRP BB  19 0.0     
20 TC4   7 TRP SC1 20 0.0 36.0
21 TN6d  7 TRP SC2 21 0.0 36.0
22 TC5   7 TRP SC3 22 0.0  0.0
23 TC5   7 TRP SC4 23 0.0 36.0
24 TC5   7 TRP SC5 24 0.0 36.0
25 P2    8 ARG BB  25 0.0     
26 SC3   8 ARG SC1 26 0.0     
27 SQ3p  8 ARG SC2 27 1.0     
28 SP2a  9 PRO BB  28 0.0     
29 SC3   9 PRO SC1 29 0.0     
30 P2   10 TRP BB  30 0.0     
31 TC4  10 TRP SC1 31 0.0 36.0
32 TN6d 10 TRP SC2 32 0.0 36.0
33 TC5  10 TRP SC3 33 0.0  0.0
34 TC5  10 TRP SC4 34 0.0 36.0
35 TC5  10 TRP SC5 35 0.0 36.0
36 P2   11 TRP BB  36 0.0     
37 TC4  11 TRP SC1 37 0.0 36.0
38 TN6d 11 TRP SC2 38 0.0 36.0
39 TC5  11 TRP SC3 39 0.0  0.0
40 TC5  11 TRP SC4 40 0.0 36.0
41 TC5  11 TRP SC5 41 0.0 36.0
42 P6   12 LYS BB  42   0     
43 SC3  12 LYS SC1 43 0.0     
44 SQ4p 12 LYS SC2 44 1.0     

[ position_restraints ]
#ifdef POSRES
 1 1 POSRES_FC POSRES_FC POSRES_FC
 4 1 POSRES_FC POSRES_FC POSRES_FC
10 1 POSRES_FC POSRES_FC POSRES_FC
12 1 POSRES_FC POSRES_FC POSRES_FC
14 1 POSRES_FC POSRES_FC POSRES_FC
17 1 POSRES_FC POSRES_FC POSRES_FC
19 1 POSRES_FC POSRES_FC POSRES_FC
25 1 POSRES_FC POSRES_FC POSRES_FC
28 1 POSRES_FC POSRES_FC POSRES_FC
30 1 POSRES_FC POSRES_FC POSRES_FC
36 1 POSRES_FC POSRES_FC POSRES_FC
42 1 POSRES_FC POSRES_FC POSRES_FC
#endif

[ bonds ]
; Backbone bonds
 1  4 1 0.350 4000
 4 10 1 0.350 4000
10 12 1 0.350 4000
12 14 1 0.350 4000
14 17 1 0.350 4000
17 19 1 0.350 4000
19 25 1 0.350 4000
25 28 1 0.350 4000
28 30 1 0.350 4000
30 36 1 0.350 4000
36 42 1 0.350 4000

; Side chain bonds
 1  2 1 0.330 5000
 2  3 1 0.380 5000
 4  5 1 0.315 5000
12 13 1 0.330 7500
14 15 1 0.330 5000
15 16 1 0.380 5000
17 18 1 0.363 7500
19 20 1 0.315 5000
25 26 1 0.330 5000
26 27 1 0.380 5000
28 29 1 0.330 7500
30 31 1 0.315 5000
36 37 1 0.315 5000
42 43 1 0.330 5000
43 44 1 0.360 5000

#ifdef FLEXIBLE
; Side chain bonds
 5  6 1 0.335 1000000
 5  8 1 0.404 1000000
 6  8 1 0.470 1000000
 6  9 1 0.412 1000000
 8  9 1 0.293 1000000
10 11 1 0.341 1000000
20 21 1 0.335 1000000
20 23 1 0.404 1000000
21 23 1 0.470 1000000
21 24 1 0.412 1000000
23 24 1 0.293 1000000
31 32 1 0.335 1000000
31 34 1 0.404 1000000
32 34 1 0.470 1000000
32 35 1 0.412 1000000
34 35 1 0.293 1000000
37 38 1 0.335 1000000
37 40 1 0.404 1000000
38 40 1 0.470 1000000
38 41 1 0.412 1000000
40 41 1 0.293 1000000
#endif

[ constraints ]
#ifndef FLEXIBLE
; Side chain bonds
 5  6 1 0.335
 5  8 1 0.404
 6  8 1 0.470
 6  9 1 0.412
 8  9 1 0.293
10 11 1 0.341
20 21 1 0.335
20 23 1 0.404
21 23 1 0.470
21 24 1 0.412
23 24 1 0.293
31 32 1 0.335
31 34 1 0.404
32 34 1 0.470
32 35 1 0.412
34 35 1 0.293
37 38 1 0.335
37 40 1 0.404
38 40 1 0.470
38 41 1 0.412
40 41 1 0.293
#endif

[ angles ]
; BBB angles
 1  4 10 10 127 20
 4 10 12 10 127 20
10 12 14 10 127 20
12 14 17 10 127 20
14 17 19 10 127 20
17 19 25 10 127 20
19 25 28 10 127 20
25 28 30 10 127 20
28 30 36 10 127 20
30 36 42 10 127 20

; BBS angles regular martini
 1  4  5 2 100 25
 4 10 11 2 100 25
10 12 13 2 100 25
12 14 15 2 100 25
14 17 18 2 100 25
17 19 20 2 100 25
19 25 26 2 100 25
25 28 29 2 100 25
28 30 31 2 100 25
30 36 37 2 100 25
36 42 43 2 100 25

; First SBB regular martini
 2  1  4 2 100 25

; SC-BB-BB and BB-BB-SC scFix
 2  1  4 10 100 15 ; SC-BB-BB
 1  4  5 10 100 15 ; BB-BB-SC
 5  4 10 10 100 15 ; SC-BB-BB
 4 10 11 10 100 15 ; BB-BB-SC
11 10 12 10 100 15 ; SC-BB-BB
10 12 13 10 100 15 ; BB-BB-SC
13 12 14 10 100 15 ; SC-BB-BB
12 14 15 10 100 15 ; BB-BB-SC
15 14 17 10 100 15 ; SC-BB-BB
14 17 18 10 100 15 ; BB-BB-SC
18 17 19 10 100 15 ; SC-BB-BB
17 19 20 10 100 15 ; BB-BB-SC
20 19 25 10 100 15 ; SC-BB-BB
19 25 26 10 100 15 ; BB-BB-SC
26 25 28 10 100 15 ; SC-BB-BB
25 28 29 10 100 15 ; BB-BB-SC
29 28 30 10 100 15 ; SC-BB-BB
28 30 31 10 100 15 ; BB-BB-SC
31 30 36 10 100 15 ; SC-BB-BB
30 36 37 10 100 15 ; BB-BB-SC
37 36 42 10 100 15 ; SC-BB-BB
36 42 43 10 100 15 ; BB-BB-SC

; Side chain angles
 1  2  3 2 180.000 25.0
 4  5  6 2 120.000 60.0
 4  5  8 2 130.000 60.0
14 15 16 2 180.000 25.0
19 20 21 2 120.000 60.0
19 20 23 2 130.000 60.0
25 26 27 2 180.000 25.0
30 31 32 2 120.000 60.0
30 31 34 2 130.000 60.0
36 37 38 2 120.000 60.0
36 37 40 2 130.000 60.0
42 43 44 2 180.000 25.0

[ dihedrals ]
; SC-BB-BB-SC scFix
 2  1  4  5 1 -90.5 75 1 ; SC-BB-BB-SC
 5  4 10 11 1 12.6 75 1 ; SC-BB-BB-SC
11 10 12 13 1 65.1 75 1 ; SC-BB-BB-SC
13 12 14 15 1 1.5 75 1 ; SC-BB-BB-SC
15 14 17 18 1 -70.6 75 1 ; SC-BB-BB-SC
18 17 19 20 1 -161.6 75 1 ; SC-BB-BB-SC
20 19 25 26 1 -2.0 75 1 ; SC-BB-BB-SC
26 25 28 29 1 74.0 75 1 ; SC-BB-BB-SC
29 28 30 31 1 -75.5 75 1 ; SC-BB-BB-SC
31 30 36 37 1 -86.7 75 1 ; SC-BB-BB-SC
37 36 42 43 1 -58.2 75 1 ; SC-BB-BB-SC

[ dihedrals ]
 9  8  6  5 2 180.0 100.0
24 23 21 20 2 180.0 100.0
35 34 32 31 2 180.0 100.0
41 40 38 37 2 180.0 100.0

[ virtual_sitesn ]
 7 2  9  8  6  5
22 2 24 23 21 20
33 2 35 34 32 31
39 2 41 40 38 37

[ exclusions ]
 4  5  6  7  8  9 
 5  6  7  8  9 
 6  7  8  9 
 7  8  9 
 8  9 
19 20 21 22 23 24 
20 21 22 23 24 
21 22 23 24 
22 23 24 
23 24 
30 31 32 33 34 35 
31 32 33 34 35 
32 33 34 35 
33 34 35 
34 35 
36 37 38 39 40 41 
37 38 39 40 41 
38 39 40 41 
39 40 41 
40 41 

