; This file was generated using the following command:
; /opt/conda/bin/martinize2 -f /work/simulations/solvia_1663_run_1/colabfold/best_model.pdb -ff martini3001 -x /work/simulations/solvia_1663_run_1/coarse_grain/SOLVIA_1663_cg.pdb -o /work/simulations/solvia_1663_run_1/coarse_grain/SOLVIA_1663.itp -name SOLVIA_1663 -cter NH2-ter -maxwarn 1 -cys auto -dssp -p backbone -pf 1000
; martinize with vermouth 0.15.0
; The following sequence of secondary structure 
; was used for the full system:
; CHHHHHHHHHHC

; Please cite the following papers:
; Souza, P C T; Alessandri, R; Barnoud, J; Thallmair, S; Faustino, I; Grünewald, F; Patmanidis, I; Abdizadeh, H; Bruininks, B M H; Wassenaar, T A; Kroon, P C; Melcr, J; Nieto, V; Corradi, V; Khan, H M; Domański, J; Javanainen, M; Martinez-Seara, H; Reuter, N; Best, R B; Vattulainen, I; Monticelli, L; Periole, X; Tieleman, D P; de Vries, A H; Marrink, S J;  Nature Methods 2021; 10.1038/s41592-021-01098-3
; Kroon, P C; Grunewald, F; Barnoud, J; van Tilburg, M; Souza, P C; Wassenaar, T A; Marrink, S J;  elife 2024; 10.7554/elife.90627.2
; McGibbon, R T; Beauchamp, K A; Harrigan, M P; Klein, C; Swails, J M; Hernández, C X; Schwantes, C R; Wang, L; Lane, T J; Pande, V S;  Biophysical Journal 2015; 10.1016/j.bpj.2015.08.015

#ifndef POSRES_FC
#define POSRES_FC 1000.0
#endif

[ moleculetype ]
SOLVIA_1663 1

[ atoms ]
 1 Q5    1 GLY BB   1   1     
 2 P2    2 LYS BB   2 0.0     
 3 SC3   2 LYS SC1  3 0.0     
 4 SQ4p  2 LYS SC2  4 1.0     
 5 P2    3 TRP BB   5 0.0     
 6 TC4   3 TRP SC1  6 0.0 36.0
 7 TN6d  3 TRP SC2  7 0.0 36.0
 8 TC5   3 TRP SC3  8 0.0  0.0
 9 TC5   3 TRP SC4  9 0.0 36.0
10 TC5   3 TRP SC5 10 0.0 36.0
11 P2    4 MET BB  11 0.0     
12 C6    4 MET SC1 12 0.0     
13 P2    5 LYS BB  13 0.0     
14 SC3   5 LYS SC1 14 0.0     
15 SQ4p  5 LYS SC2 15 1.0     
16 P2    6 LEU BB  16 0.0     
17 SC2   6 LEU SC1 17 0.0     
18 P2    7 LEU BB  18 0.0     
19 SC2   7 LEU SC1 19 0.0     
20 P2    8 LYS BB  20 0.0     
21 SC3   8 LYS SC1 21 0.0     
22 SQ4p  8 LYS SC2 22 1.0     
23 P2    9 LYS BB  23 0.0     
24 SC3   9 LYS SC1 24 0.0     
25 SQ4p  9 LYS SC2 25 1.0     
26 P2   10 ILE BB  26 0.0     
27 SC2  10 ILE SC1 27 0.0     
28 P2   11 LEU BB  28 0.0     
29 SC2  11 LEU SC1 29 0.0     
30 P6   12 LYS BB  30   0     
31 SC3  12 LYS SC1 31 0.0     
32 SQ4p 12 LYS SC2 32 1.0     

[ position_restraints ]
#ifdef POSRES
 1 1 POSRES_FC POSRES_FC POSRES_FC
 2 1 POSRES_FC POSRES_FC POSRES_FC
 5 1 POSRES_FC POSRES_FC POSRES_FC
11 1 POSRES_FC POSRES_FC POSRES_FC
13 1 POSRES_FC POSRES_FC POSRES_FC
16 1 POSRES_FC POSRES_FC POSRES_FC
18 1 POSRES_FC POSRES_FC POSRES_FC
20 1 POSRES_FC POSRES_FC POSRES_FC
23 1 POSRES_FC POSRES_FC POSRES_FC
26 1 POSRES_FC POSRES_FC POSRES_FC
28 1 POSRES_FC POSRES_FC POSRES_FC
30 1 POSRES_FC POSRES_FC POSRES_FC
#endif

[ bonds ]
; Side chain bonds
 2  3 1 0.330 5000
 3  4 1 0.360 5000
 5  6 1 0.315 5000
11 12 1 0.40 2500
13 14 1 0.330 5000
14 15 1 0.360 5000
16 17 1 0.363 7500
18 19 1 0.363 7500
20 21 1 0.330 5000
21 22 1 0.360 5000
23 24 1 0.330 5000
24 25 1 0.360 5000
28 29 1 0.363 7500
30 31 1 0.330 5000
31 32 1 0.360 5000

#ifdef FLEXIBLE
; Side chain bonds
 6  7 1 0.335 1000000
 6  9 1 0.404 1000000
 7  9 1 0.470 1000000
 7 10 1 0.412 1000000
 9 10 1 0.293 1000000
26 27 1 0.341 1000000
#endif

[ constraints ]
; Backbone bonds
 1  2 1 0.33
 2  5 1 0.310
 5 11 1 0.310
11 13 1 0.310
13 16 1 0.310
16 18 1 0.310
18 20 1 0.310
20 23 1 0.310
23 26 1 0.310
26 28 1 0.310
28 30 1 0.33

#ifndef FLEXIBLE
; Side chain bonds
 6  7 1 0.335
 6  9 1 0.404
 7  9 1 0.470
 7 10 1 0.412
 9 10 1 0.293
26 27 1 0.341
#endif

[ angles ]
; BBB angles
 1  2  5 10 127 20
 2  5 11 2 96 700
 5 11 13 2 96 700
11 13 16 2 96 700
13 16 18 2 96 700
16 18 20 2 96 700
18 20 23 2 96 700
20 23 26 2 96 700
23 26 28 2 96 700
26 28 30 10 127 20

; BBS angles regular martini
 1  2  3 2 100 25
 2  5  6 2 100 25
 5 11 12 2 100 25
11 13 14 2 100 25
13 16 17 2 100 25
16 18 19 2 100 25
18 20 21 2 100 25
20 23 24 2 100 25
23 26 27 2 100 25
26 28 29 2 100 25
28 30 31 2 100 25

; SC-BB-BB and BB-BB-SC scFix
 1  2  3 10 100 15 ; BB-BB-SC
 3  2  5 10 100 15 ; SC-BB-BB
 2  5  6 10 100 15 ; BB-BB-SC
 6  5 11 10 100 15 ; SC-BB-BB
 5 11 12 10 100 15 ; BB-BB-SC
12 11 13 10 100 15 ; SC-BB-BB
11 13 14 10 100 15 ; BB-BB-SC
14 13 16 10 100 15 ; SC-BB-BB
13 16 17 10 100 15 ; BB-BB-SC
17 16 18 10 100 15 ; SC-BB-BB
16 18 19 10 100 15 ; BB-BB-SC
19 18 20 10 100 15 ; SC-BB-BB
18 20 21 10 100 15 ; BB-BB-SC
21 20 23 10 100 15 ; SC-BB-BB
20 23 24 10 100 15 ; BB-BB-SC
24 23 26 10 100 15 ; SC-BB-BB
23 26 27 10 100 15 ; BB-BB-SC
27 26 28 10 100 15 ; SC-BB-BB
26 28 29 10 100 15 ; BB-BB-SC
29 28 30 10 100 15 ; SC-BB-BB
28 30 31 10 100 15 ; BB-BB-SC

; Side chain angles
 2  3  4 2 180.000 25.0
 5  6  7 2 120.000 60.0
 5  6  9 2 130.000 60.0
13 14 15 2 180.000 25.0
20 21 22 2 180.000 25.0
23 24 25 2 180.000 25.0
30 31 32 2 180.000 25.0

[ dihedrals ]
 2  5 11 13 1 -120 400 1
 5 11 13 16 1 -120 400 1
11 13 16 18 1 -120 400 1
13 16 18 20 1 -120 400 1
16 18 20 23 1 -120 400 1
18 20 23 26 1 -120 400 1
20 23 26 28 1 -120 400 1

; SC-BB-BB-SC scFix
 3  2  5  6 1 -127.3 75 1 ; SC-BB-BB-SC
 6  5 11 12 1 -161.5 75 1 ; SC-BB-BB-SC
12 11 13 14 1 -99.4 75 1 ; SC-BB-BB-SC
14 13 16 17 1 -146.4 75 1 ; SC-BB-BB-SC
17 16 18 19 1 -141.3 75 1 ; SC-BB-BB-SC
19 18 20 21 1 -134.6 75 1 ; SC-BB-BB-SC
21 20 23 24 1 -122.6 75 1 ; SC-BB-BB-SC
24 23 26 27 1 -139.2 75 1 ; SC-BB-BB-SC
27 26 28 29 1 -165.4 75 1 ; SC-BB-BB-SC
29 28 30 31 1 -142.0 75 1 ; SC-BB-BB-SC

[ dihedrals ]
10  9  7  6 2 180.0 100.0

[ virtual_sitesn ]
 8 2 10  9  7  6

[ exclusions ]
 5  6  7  8  9 10 
 6  7  8  9 10 
 7  8  9 10 
 8  9 10 
 9 10 

