; This file was generated using the following command:
; /opt/conda/bin/martinize2 -f /work/simulations/solvia_490_run_1/colabfold/best_model.pdb -ff martini3001 -x /work/simulations/solvia_490_run_1/coarse_grain/SOLVIA_490_cg.pdb -o /work/simulations/solvia_490_run_1/coarse_grain/SOLVIA_490.itp -name SOLVIA_490 -cter NH2-ter -maxwarn 1 -cys auto -dssp -p backbone -pf 1000
; martinize with vermouth 0.14.0
; The following sequence of secondary structure 
; was used for the full system:
; CCCEEEEEETTEEEEEEC

; Please cite the following papers:
; McGibbon, R T; Beauchamp, K A; Harrigan, M P; Klein, C; Swails, J M; Hernández, C X; Schwantes, C R; Wang, L; Lane, T J; Pande, V S;  Biophysical Journal 2015; 10.1016/j.bpj.2015.08.015
; Kroon, P C; Grunewald, F; Barnoud, J; van Tilburg, M; Souza, P C; Wassenaar, T A; Marrink, S J;  elife 2024; 10.7554/elife.90627.2
; Souza, P C T; Alessandri, R; Barnoud, J; Thallmair, S; Faustino, I; Grünewald, F; Patmanidis, I; Abdizadeh, H; Bruininks, B M H; Wassenaar, T A; Kroon, P C; Melcr, J; Nieto, V; Corradi, V; Khan, H M; Domański, J; Javanainen, M; Martinez-Seara, H; Reuter, N; Best, R B; Vattulainen, I; Monticelli, L; Periole, X; Tieleman, D P; de Vries, A H; Marrink, S J;  Nature Methods 2021; 10.1038/s41592-021-01098-3

#ifndef POSRES_FC
#define POSRES_FC 1000.0
#endif

[ moleculetype ]
SOLVIA_490 1

[ atoms ]
 1 Q5    1 ARG BB   1   1     
 2 SC3   1 ARG SC1  2 0.0     
 3 SQ3p  1 ARG SC2  3 1.0     
 4 P2    2 ARG BB   4 0.0     
 5 SC3   2 ARG SC1  5 0.0     
 6 SQ3p  2 ARG SC2  6 1.0     
 7 P2    3 TRP BB   7 0.0     
 8 TC4   3 TRP SC1  8 0.0 36.0
 9 TN6d  3 TRP SC2  9 0.0 36.0
10 TC5   3 TRP SC3 10 0.0  0.0
11 TC5   3 TRP SC4 11 0.0 36.0
12 TC5   3 TRP SC5 12 0.0 36.0
13 P2    4 CYS BB  13 0.0     
14 TC6   4 CYS SC1 14 0.0     
15 P2    5 PHE BB  15 0.0     
16 SC4   5 PHE SC1 16 0.0     
17 TC5   5 PHE SC2 17 0.0     
18 TC5   5 PHE SC3 18 0.0     
19 P2    6 ARG BB  19 0.0     
20 SC3   6 ARG SC1 20 0.0     
21 SQ3p  6 ARG SC2 21 1.0     
22 SP2   7 VAL BB  22 0.0     
23 SC3   7 VAL SC1 23 0.0     
24 P2    8 CYS BB  24 0.0     
25 TC6   8 CYS SC1 25 0.0     
26 P2    9 TYR BB  26 0.0     
27 TC4   9 TYR SC1 27 0.0     
28 TC5   9 TYR SC2 28 0.0     
29 TC5   9 TYR SC3 29 0.0     
30 TN6   9 TYR SC4 30 0.0     
31 P2   10 LYS BB  31 0.0     
32 SC3  10 LYS SC1 32 0.0     
33 SQ4p 10 LYS SC2 33 1.0     
34 SP1  11 GLY BB  34 0.0     
35 P2   12 PHE BB  35 0.0     
36 SC4  12 PHE SC1 36 0.0     
37 TC5  12 PHE SC2 37 0.0     
38 TC5  12 PHE SC3 38 0.0     
39 P2   13 CYS BB  39 0.0     
40 TC6  13 CYS SC1 40 0.0     
41 P2   14 TYR BB  41 0.0     
42 TC4  14 TYR SC1 42 0.0     
43 TC5  14 TYR SC2 43 0.0     
44 TC5  14 TYR SC3 44 0.0     
45 TN6  14 TYR SC4 45 0.0     
46 P2   15 ARG BB  46 0.0     
47 SC3  15 ARG SC1 47 0.0     
48 SQ3p 15 ARG SC2 48 1.0     
49 P2   16 LYS BB  49 0.0     
50 SC3  16 LYS SC1 50 0.0     
51 SQ4p 16 LYS SC2 51 1.0     
52 P2   17 CYS BB  52 0.0     
53 TC6  17 CYS SC1 53 0.0     
54 P6   18 ARG BB  54   0     
55 SC3  18 ARG SC1 55 0.0     
56 SQ3p 18 ARG SC2 56 1.0     

[ position_restraints ]
#ifdef POSRES
 1 1 POSRES_FC POSRES_FC POSRES_FC
 4 1 POSRES_FC POSRES_FC POSRES_FC
 7 1 POSRES_FC POSRES_FC POSRES_FC
13 1 POSRES_FC POSRES_FC POSRES_FC
15 1 POSRES_FC POSRES_FC POSRES_FC
19 1 POSRES_FC POSRES_FC POSRES_FC
22 1 POSRES_FC POSRES_FC POSRES_FC
24 1 POSRES_FC POSRES_FC POSRES_FC
26 1 POSRES_FC POSRES_FC POSRES_FC
31 1 POSRES_FC POSRES_FC POSRES_FC
34 1 POSRES_FC POSRES_FC POSRES_FC
35 1 POSRES_FC POSRES_FC POSRES_FC
39 1 POSRES_FC POSRES_FC POSRES_FC
41 1 POSRES_FC POSRES_FC POSRES_FC
46 1 POSRES_FC POSRES_FC POSRES_FC
49 1 POSRES_FC POSRES_FC POSRES_FC
52 1 POSRES_FC POSRES_FC POSRES_FC
54 1 POSRES_FC POSRES_FC POSRES_FC
#endif

[ bonds ]
; Backbone bonds
 1  4 1 0.350 4000
 4  7 1 0.350 4000
 7 13 1 0.350 4000
13 15 1 0.350 4000
15 19 1 0.350 4000
19 22 1 0.350 4000
22 24 1 0.350 4000
24 26 1 0.350 4000
26 31 1 0.350 4000
31 34 1 0.350 4000
34 35 1 0.350 4000
35 39 1 0.350 4000
39 41 1 0.350 4000
41 46 1 0.350 4000
46 49 1 0.350 4000
49 52 1 0.350 4000
52 54 1 0.350 4000

; Long elastic bonds for extended regions
13 22 1 0.970 2500
15 24 1 0.970 2500
19 26 1 0.970 2500
35 46 1 0.970 2500
39 49 1 0.970 2500
41 52 1 0.970 2500

; Short elastic bonds for extended regions
13 19 1 0.640 2500
15 22 1 0.640 2500
19 24 1 0.640 2500
22 26 1 0.640 2500
35 41 1 0.640 2500
39 46 1 0.640 2500
41 49 1 0.640 2500
46 52 1 0.640 2500

; Side chain bonds
 1  2 1 0.330 5000
 2  3 1 0.380 5000
 4  5 1 0.330 5000
 5  6 1 0.380 5000
 7  8 1 0.315 5000
13 14 1 0.341 7500
15 16 1 0.325 7500
19 20 1 0.330 5000
20 21 1 0.380 5000
24 25 1 0.341 7500
26 27 1 0.325 5000
31 32 1 0.330 5000
32 33 1 0.360 5000
35 36 1 0.325 7500
39 40 1 0.341 7500
41 42 1 0.325 5000
46 47 1 0.330 5000
47 48 1 0.380 5000
49 50 1 0.330 5000
50 51 1 0.360 5000
52 53 1 0.341 7500
54 55 1 0.330 5000
55 56 1 0.380 5000

#ifdef FLEXIBLE
; Side chain bonds
 8  9 1 0.335 1000000
 9 12 1 0.412 1000000
11 12 1 0.293 1000000
 8 11 1 0.404 1000000
 9 11 1 0.470 1000000
16 17 1 0.340 1000000
16 18 1 0.340 1000000
17 18 1 0.290 1000000
22 23 1 0.292 1000000
27 28 1 0.300 1000000
27 29 1 0.300 1000000
28 30 1 0.285 1000000
29 30 1 0.285 1000000
28 29 1 0.300 1000000
36 37 1 0.340 1000000
36 38 1 0.340 1000000
37 38 1 0.290 1000000
42 43 1 0.300 1000000
42 44 1 0.300 1000000
43 45 1 0.285 1000000
44 45 1 0.285 1000000
43 44 1 0.300 1000000
#endif

[ constraints ]
14 53 1 0.24 ; Disulfide bridge

#ifndef FLEXIBLE
; Side chain bonds
 8  9 1 0.335
 9 12 1 0.412
11 12 1 0.293
 8 11 1 0.404
 9 11 1 0.470
16 17 1 0.340
16 18 1 0.340
17 18 1 0.290
22 23 1 0.292
27 28 1 0.300
27 29 1 0.300
28 30 1 0.285
29 30 1 0.285
28 29 1 0.300
36 37 1 0.340
36 38 1 0.340
37 38 1 0.290
42 43 1 0.300
42 44 1 0.300
43 45 1 0.285
44 45 1 0.285
43 44 1 0.300
#endif

[ angles ]
; BBB angles
 4  7 13 10 127 20
 7 13 15 10 127 20
13 15 19 10 134 25
15 19 22 10 134 25
19 22 24 10 134 25
22 24 26 10 134 25
24 26 31 10 100 20
26 31 34 10 100 20
31 34 35 10 100 20
34 35 39 10 100 20
35 39 41 10 134 25
39 41 46 10 134 25
41 46 49 10 134 25
46 49 52 10 134 25
49 52 54 10 127 20
 1  4  7 10 127 20

; BBS angles regular martini
 1  4  5 2 100 25
 4  7  8 2 100 25
 7 13 14 2 100 25
13 15 16 2 100 25
15 19 20 2 100 25
19 22 23 2 100 25
22 24 25 2 100 25
24 26 27 2 100 25
26 31 32 2 100 25
34 35 36 2 100 25
35 39 40 2 100 25
39 41 42 2 100 25
41 46 47 2 100 25
46 49 50 2 100 25
49 52 53 2 100 25
52 54 55 2 100 25

; First SBB regular martini
 2  1  4 2 100 25

; SC-BB-BB and BB-BB-SC scFix
 2  1  4 10 100 15 ; SC-BB-BB
 5  4  7 10 100 15 ; SC-BB-BB
 8  7 13 10 100 15 ; SC-BB-BB
14 13 15 10 100 15 ; SC-BB-BB
16 15 19 10 100 15 ; SC-BB-BB
20 19 22 10 100 15 ; SC-BB-BB
23 22 24 10 100 15 ; SC-BB-BB
25 24 26 10 100 15 ; SC-BB-BB
27 26 31 10 100 15 ; SC-BB-BB
32 31 34 10 100 15 ; SC-BB-BB
36 35 39 10 100 15 ; SC-BB-BB
40 39 41 10 100 15 ; SC-BB-BB
42 41 46 10 100 15 ; SC-BB-BB
47 46 49 10 100 15 ; SC-BB-BB
50 49 52 10 100 15 ; SC-BB-BB
53 52 54 10 100 15 ; SC-BB-BB
 1  4  5 10 100 15 ; BB-BB-SC
 4  7  8 10 100 15 ; BB-BB-SC
 7 13 14 10 100 15 ; BB-BB-SC
13 15 16 10 100 15 ; BB-BB-SC
15 19 20 10 100 15 ; BB-BB-SC
19 22 23 10 100 15 ; BB-BB-SC
22 24 25 10 100 15 ; BB-BB-SC
24 26 27 10 100 15 ; BB-BB-SC
26 31 32 10 100 15 ; BB-BB-SC
34 35 36 10 100 15 ; BB-BB-SC
35 39 40 10 100 15 ; BB-BB-SC
39 41 42 10 100 15 ; BB-BB-SC
41 46 47 10 100 15 ; BB-BB-SC
46 49 50 10 100 15 ; BB-BB-SC
49 52 53 10 100 15 ; BB-BB-SC
52 54 55 10 100 15 ; BB-BB-SC

; Side chain angles
 1  2  3 2 180.000 25.0
 4  5  6 2 180.000 25.0
 7  8  9 2 120.000 60.0
 7  8 11 2 130.000 60.0
15 16 17 2 120.000 50.0
15 16 18 2 120.000 50.0
19 20 21 2 180.000 25.0
26 27 28 2 120.000 60.0
26 27 29 2 120.000 60.0
31 32 33 2 180.000 25.0
35 36 37 2 120.000 50.0
35 36 38 2 120.000 50.0
41 42 43 2 120.000 60.0
41 42 44 2 120.000 60.0
46 47 48 2 180.000 25.0
49 50 51 2 180.000 25.0
54 55 56 2 180.000 25.0

[ dihedrals ]
; SC-BB-BB-SC scFix
 2  1  4  5 1 41.6 75 1 ; SC-BB-BB-SC
 5  4  7  8 1 17.8 75 1 ; SC-BB-BB-SC
 8  7 13 14 1 15.0 75 1 ; SC-BB-BB-SC
14 13 15 16 1 47.6 75 1 ; SC-BB-BB-SC
16 15 19 20 1 16.8 75 1 ; SC-BB-BB-SC
20 19 22 23 1 3.5 75 1 ; SC-BB-BB-SC
23 22 24 25 1 26.9 75 1 ; SC-BB-BB-SC
25 24 26 27 1 4.8 75 1 ; SC-BB-BB-SC
27 26 31 32 1 -165.2 75 1 ; SC-BB-BB-SC
36 35 39 40 1 23.6 75 1 ; SC-BB-BB-SC
40 39 41 42 1 31.9 75 1 ; SC-BB-BB-SC
42 41 46 47 1 25.9 75 1 ; SC-BB-BB-SC
47 46 49 50 1 7.2 75 1 ; SC-BB-BB-SC
50 49 52 53 1 18.6 75 1 ; SC-BB-BB-SC
53 52 54 55 1 33.4 75 1 ; SC-BB-BB-SC
31 34 35 36 1 84.8 75 1 ; BB-BB-BB-SC
32 31 34 35 1 -100.2 75 1 ; SC-BB-BB-BB

[ dihedrals ]
12 11  9  8 2 180.0 100.0
30 28 29 27 2 180.0 50.0
45 43 44 42 2 180.0 50.0

[ virtual_sitesn ]
10 2 12 11  9  8

[ exclusions ]
 7  8  9 10 11 12 
 8  9 10 11 12 
 9 10 11 12 
10 11 12 
11 12 
15 16 17 18 
16 17 18 
17 18 
26 27 28 29 30 
27 28 29 30 
28 29 30 
29 30 
35 36 37 38 
36 37 38 
37 38 
41 42 43 44 45 
42 43 44 45 
43 44 45 
44 45 

