; This file was generated using the following command:
; /opt/conda/bin/martinize2 -f /work/simulations/solvia_527_run_1/colabfold/best_model.pdb -ff martini3001 -x /work/simulations/solvia_527_run_1/coarse_grain/SOLVIA_527_cg.pdb -o /work/simulations/solvia_527_run_1/coarse_grain/SOLVIA_527.itp -name SOLVIA_527 -cter NH2-ter -maxwarn 1 -cys auto -dssp -p backbone -pf 1000
; martinize with vermouth 0.14.0
; The following sequence of secondary structure 
; was used for the full system:
; CHHHHHHHHHHHHHHHHHHHHHHHC

; Please cite the following papers:
; Souza, P C T; Alessandri, R; Barnoud, J; Thallmair, S; Faustino, I; Grünewald, F; Patmanidis, I; Abdizadeh, H; Bruininks, B M H; Wassenaar, T A; Kroon, P C; Melcr, J; Nieto, V; Corradi, V; Khan, H M; Domański, J; Javanainen, M; Martinez-Seara, H; Reuter, N; Best, R B; Vattulainen, I; Monticelli, L; Periole, X; Tieleman, D P; de Vries, A H; Marrink, S J;  Nature Methods 2021; 10.1038/s41592-021-01098-3
; McGibbon, R T; Beauchamp, K A; Harrigan, M P; Klein, C; Swails, J M; Hernández, C X; Schwantes, C R; Wang, L; Lane, T J; Pande, V S;  Biophysical Journal 2015; 10.1016/j.bpj.2015.08.015
; Kroon, P C; Grunewald, F; Barnoud, J; van Tilburg, M; Souza, P C; Wassenaar, T A; Marrink, S J;  elife 2024; 10.7554/elife.90627.2

#ifndef POSRES_FC
#define POSRES_FC 1000.0
#endif

[ moleculetype ]
SOLVIA_527 1

[ atoms ]
 1 Q5    1 GLY BB   1    1 
 2 P2    2 LEU BB   2  0.0 
 3 SC2   2 LEU SC1  3  0.0 
 4 P2    3 PHE BB   4  0.0 
 5 SC4   3 PHE SC1  5  0.0 
 6 TC5   3 PHE SC2  6  0.0 
 7 TC5   3 PHE SC3  7  0.0 
 8 P2    4 LYS BB   8  0.0 
 9 SC3   4 LYS SC1  9  0.0 
10 SQ4p  4 LYS SC2 10  1.0 
11 SP2   5 VAL BB  11  0.0 
12 SC3   5 VAL SC1 12  0.0 
13 P2    6 LEU BB  13  0.0 
14 SC2   6 LEU SC1 14  0.0 
15 SP1   7 GLY BB  15  0.0 
16 P2    8 SER BB  16  0.0 
17 TP1   8 SER SC1 17  0.0 
18 SP2   9 VAL BB  18  0.0 
19 SC3   9 VAL SC1 19  0.0 
20 SP2  10 ALA BB  20  0.0 
21 TC3  10 ALA SC1 21  0.0 
22 P2   11 LYS BB  22  0.0 
23 SC3  11 LYS SC1 23  0.0 
24 SQ4p 11 LYS SC2 24  1.0 
25 P2   12 HIS BB  25  0.0 
26 TC4  12 HIS SC1 26  0.0 
27 TN6d 12 HIS SC2 27  0.0 
28 TN5a 12 HIS SC3 28  0.0 
29 P2   13 LEU BB  29  0.0 
30 SC2  13 LEU SC1 30  0.0 
31 P2   14 LEU BB  31  0.0 
32 SC2  14 LEU SC1 32  0.0 
33 SP2a 15 PRO BB  33  0.0 
34 SC3  15 PRO SC1 34  0.0 
35 P2   16 HIS BB  35  0.0 
36 TC4  16 HIS SC1 36  0.0 
37 TN6d 16 HIS SC2 37  0.0 
38 TN5a 16 HIS SC3 38  0.0 
39 SP2  17 VAL BB  39  0.0 
40 SC3  17 VAL SC1 40  0.0 
41 SP2  18 ALA BB  41  0.0 
42 TC3  18 ALA SC1 42  0.0 
43 SP2a 19 PRO BB  43  0.0 
44 SC3  19 PRO SC1 44  0.0 
45 SP2  20 VAL BB  45  0.0 
46 SC3  20 VAL SC1 46  0.0 
47 P2   21 ILE BB  47  0.0 
48 SC2  21 ILE SC1 48  0.0 
49 SP2  22 ALA BB  49  0.0 
50 TC3  22 ALA SC1 50  0.0 
51 P2   23 GLU BB  51  0.0 
52 Q5n  23 GLU SC1 52 -1.0 
53 P2   24 LYS BB  53  0.0 
54 SC3  24 LYS SC1 54  0.0 
55 SQ4p 24 LYS SC2 55  1.0 
56 P6   25 LEU BB  56    0 
57 SC2  25 LEU SC1 57  0.0 

[ position_restraints ]
#ifdef POSRES
 1 1 POSRES_FC POSRES_FC POSRES_FC
 2 1 POSRES_FC POSRES_FC POSRES_FC
 4 1 POSRES_FC POSRES_FC POSRES_FC
 8 1 POSRES_FC POSRES_FC POSRES_FC
11 1 POSRES_FC POSRES_FC POSRES_FC
13 1 POSRES_FC POSRES_FC POSRES_FC
15 1 POSRES_FC POSRES_FC POSRES_FC
16 1 POSRES_FC POSRES_FC POSRES_FC
18 1 POSRES_FC POSRES_FC POSRES_FC
20 1 POSRES_FC POSRES_FC POSRES_FC
22 1 POSRES_FC POSRES_FC POSRES_FC
25 1 POSRES_FC POSRES_FC POSRES_FC
29 1 POSRES_FC POSRES_FC POSRES_FC
31 1 POSRES_FC POSRES_FC POSRES_FC
33 1 POSRES_FC POSRES_FC POSRES_FC
35 1 POSRES_FC POSRES_FC POSRES_FC
39 1 POSRES_FC POSRES_FC POSRES_FC
41 1 POSRES_FC POSRES_FC POSRES_FC
43 1 POSRES_FC POSRES_FC POSRES_FC
45 1 POSRES_FC POSRES_FC POSRES_FC
47 1 POSRES_FC POSRES_FC POSRES_FC
49 1 POSRES_FC POSRES_FC POSRES_FC
51 1 POSRES_FC POSRES_FC POSRES_FC
53 1 POSRES_FC POSRES_FC POSRES_FC
56 1 POSRES_FC POSRES_FC POSRES_FC
#endif

[ bonds ]
; Side chain bonds
 2  3 1 0.363 7500
 4  5 1 0.325 7500
 8  9 1 0.330 5000
 9 10 1 0.360 5000
13 14 1 0.363 7500
16 17 1 0.287 7500
22 23 1 0.330 5000
23 24 1 0.360 5000
25 26 1 0.336 7500
29 30 1 0.363 7500
31 32 1 0.363 7500
33 34 1 0.330 7500
35 36 1 0.336 7500
43 44 1 0.330 7500
51 52 1 0.400 5000
53 54 1 0.330 5000
54 55 1 0.360 5000
56 57 1 0.363 7500

#ifdef FLEXIBLE
; Side chain bonds
 5  6 1 0.340 1000000
 5  7 1 0.340 1000000
 6  7 1 0.290 1000000
11 12 1 0.292 1000000
18 19 1 0.292 1000000
20 21 1 0.270 1000000
26 27 1 0.320 1000000
26 28 1 0.300 1000000
27 28 1 0.270 1000000
36 37 1 0.320 1000000
36 38 1 0.300 1000000
37 38 1 0.270 1000000
39 40 1 0.292 1000000
41 42 1 0.270 1000000
45 46 1 0.292 1000000
47 48 1 0.341 1000000
49 50 1 0.270 1000000
#endif

[ constraints ]
; Backbone bonds
 1  2 1 0.33
 2  4 1 0.310
 4  8 1 0.310
 8 11 1 0.310
11 13 1 0.310
13 15 1 0.310
15 16 1 0.310
16 18 1 0.310
18 20 1 0.310
20 22 1 0.310
22 25 1 0.310
25 29 1 0.310
29 31 1 0.310
31 33 1 0.310
33 35 1 0.310
35 39 1 0.310
39 41 1 0.310
41 43 1 0.310
43 45 1 0.310
45 47 1 0.310
47 49 1 0.310
49 51 1 0.310
51 53 1 0.310
53 56 1 0.33

#ifndef FLEXIBLE
; Side chain bonds
 5  6 1 0.340
 5  7 1 0.340
 6  7 1 0.290
11 12 1 0.292
18 19 1 0.292
20 21 1 0.270
26 27 1 0.320
26 28 1 0.300
27 28 1 0.270
36 37 1 0.320
36 38 1 0.300
37 38 1 0.270
39 40 1 0.292
41 42 1 0.270
45 46 1 0.292
47 48 1 0.341
49 50 1 0.270
#endif

[ angles ]
; BBB angles
 1  2  4 10 127 20
 2  4  8 2 96 700
 4  8 11 2 96 700
 8 11 13 2 96 700
11 13 15 2 96 700
13 15 16 2 96 700
15 16 18 2 96 700
16 18 20 2 96 700
18 20 22 2 96 700
20 22 25 2 96 700
22 25 29 2 96 700
25 29 31 2 96 700
29 31 33 10 98 100
31 33 35 10 98 100
33 35 39 10 98 100
35 39 41 2 96 700
39 41 43 10 98 100
41 43 45 10 98 100
43 45 47 10 98 100
45 47 49 2 96 700
47 49 51 2 96 700
49 51 53 2 96 700
51 53 56 10 127 20

; BBS angles regular martini
 1  2  3 2 100 25
 2  4  5 2 100 25
 4  8  9 2 100 25
 8 11 12 2 100 25
11 13 14 2 100 25
15 16 17 2 100 25
16 18 19 2 100 25
18 20 21 2 100 25
20 22 23 2 100 25
22 25 26 2 100 25
25 29 30 2 100 25
29 31 32 2 100 25
31 33 34 2 100 25
33 35 36 2 100 25
35 39 40 2 100 25
39 41 42 2 100 25
41 43 44 2 100 25
43 45 46 2 100 25
45 47 48 2 100 25
47 49 50 2 100 25
49 51 52 2 100 25
51 53 54 2 100 25
53 56 57 2 100 25

; SC-BB-BB and BB-BB-SC scFix
 3  2  4 10 100 15 ; SC-BB-BB
 5  4  8 10 100 15 ; SC-BB-BB
 9  8 11 10 100 15 ; SC-BB-BB
12 11 13 10 100 15 ; SC-BB-BB
14 13 15 10 100 15 ; SC-BB-BB
17 16 18 10 100 15 ; SC-BB-BB
19 18 20 10 100 15 ; SC-BB-BB
21 20 22 10 100 15 ; SC-BB-BB
23 22 25 10 100 15 ; SC-BB-BB
26 25 29 10 100 15 ; SC-BB-BB
30 29 31 10 100 15 ; SC-BB-BB
32 31 33 10 100 15 ; SC-BB-BB
34 33 35 10 100 15 ; SC-BB-BB
36 35 39 10 100 15 ; SC-BB-BB
40 39 41 10 100 15 ; SC-BB-BB
42 41 43 10 100 15 ; SC-BB-BB
44 43 45 10 100 15 ; SC-BB-BB
46 45 47 10 100 15 ; SC-BB-BB
48 47 49 10 100 15 ; SC-BB-BB
50 49 51 10 100 15 ; SC-BB-BB
52 51 53 10 100 15 ; SC-BB-BB
54 53 56 10 100 15 ; SC-BB-BB
 1  2  3 10 100 15 ; BB-BB-SC
 2  4  5 10 100 15 ; BB-BB-SC
 4  8  9 10 100 15 ; BB-BB-SC
 8 11 12 10 100 15 ; BB-BB-SC
11 13 14 10 100 15 ; BB-BB-SC
15 16 17 10 100 15 ; BB-BB-SC
16 18 19 10 100 15 ; BB-BB-SC
18 20 21 10 100 15 ; BB-BB-SC
20 22 23 10 100 15 ; BB-BB-SC
22 25 26 10 100 15 ; BB-BB-SC
25 29 30 10 100 15 ; BB-BB-SC
29 31 32 10 100 15 ; BB-BB-SC
31 33 34 10 100 15 ; BB-BB-SC
33 35 36 10 100 15 ; BB-BB-SC
35 39 40 10 100 15 ; BB-BB-SC
39 41 42 10 100 15 ; BB-BB-SC
41 43 44 10 100 15 ; BB-BB-SC
43 45 46 10 100 15 ; BB-BB-SC
45 47 48 10 100 15 ; BB-BB-SC
47 49 50 10 100 15 ; BB-BB-SC
49 51 52 10 100 15 ; BB-BB-SC
51 53 54 10 100 15 ; BB-BB-SC
53 56 57 10 100 15 ; BB-BB-SC

; Side chain angles
 4  5  6 2 120.000 50.0
 4  5  7 2 120.000 50.0
 8  9 10 2 180.000 25.0
22 23 24 2 180.000 25.0
25 26 27 2 120.000 50.0
25 26 28 2 120.000 50.0
35 36 37 2 120.000 50.0
35 36 38 2 120.000 50.0
53 54 55 2 180.000 25.0

[ dihedrals ]
 2  4  8 11 1 -120 400 1
 4  8 11 13 1 -120 400 1
 8 11 13 15 1 -120 400 1
11 13 15 16 1 -120 400 1
13 15 16 18 1 -120 400 1
15 16 18 20 1 -120 400 1
16 18 20 22 1 -120 400 1
18 20 22 25 1 -120 400 1
20 22 25 29 1 -120 400 1
22 25 29 31 1 -120 400 1
25 29 31 33 1 -120 400 1
29 31 33 35 1 -120 400 1
31 33 35 39 1 -120 400 1
33 35 39 41 1 -120 400 1
35 39 41 43 1 -120 400 1
39 41 43 45 1 -120 400 1
41 43 45 47 1 -120 400 1
43 45 47 49 1 -120 400 1
45 47 49 51 1 -120 400 1
47 49 51 53 1 -120 400 1

; SC-BB-BB-SC scFix
 3  2  4  5 1 -138.9 75 1 ; SC-BB-BB-SC
 5  4  8  9 1 -157.1 75 1 ; SC-BB-BB-SC
 9  8 11 12 1 -147.2 75 1 ; SC-BB-BB-SC
12 11 13 14 1 -145.0 75 1 ; SC-BB-BB-SC
17 16 18 19 1 -128.8 75 1 ; SC-BB-BB-SC
19 18 20 21 1 -125.0 75 1 ; SC-BB-BB-SC
21 20 22 23 1 -151.8 75 1 ; SC-BB-BB-SC
23 22 25 26 1 -155.6 75 1 ; SC-BB-BB-SC
26 25 29 30 1 -152.0 75 1 ; SC-BB-BB-SC
30 29 31 32 1 -127.2 75 1 ; SC-BB-BB-SC
32 31 33 34 1 -127.3 75 1 ; SC-BB-BB-SC
34 33 35 36 1 151.6 75 1 ; SC-BB-BB-SC
36 35 39 40 1 -162.0 75 1 ; SC-BB-BB-SC
40 39 41 42 1 -128.7 75 1 ; SC-BB-BB-SC
42 41 43 44 1 -135.4 75 1 ; SC-BB-BB-SC
44 43 45 46 1 170.3 75 1 ; SC-BB-BB-SC
46 45 47 48 1 -143.7 75 1 ; SC-BB-BB-SC
48 47 49 50 1 -136.1 75 1 ; SC-BB-BB-SC
50 49 51 52 1 -155.1 75 1 ; SC-BB-BB-SC
52 51 53 54 1 -174.2 75 1 ; SC-BB-BB-SC
54 53 56 57 1 -136.6 75 1 ; SC-BB-BB-SC
13 15 16 17 1 93.0 75 1 ; BB-BB-BB-SC
14 13 15 16 1 7.8 75 1 ; SC-BB-BB-BB

[ exclusions ]
 4  5  6  7 
 5  6  7 
 6  7 
25 26 27 28 
26 27 28 
27 28 
35 36 37 38 
36 37 38 
37 38 

