; This file was generated using the following command:
; /opt/conda/bin/martinize2 -f /work/simulations/solvia_215_run_1/colabfold/best_model.pdb -ff martini3001 -x /work/simulations/solvia_215_run_1/coarse_grain/SOLVIA_215_cg.pdb -o /work/simulations/solvia_215_run_1/coarse_grain/SOLVIA_215.itp -name SOLVIA_215 -cter NH2-ter -maxwarn 1 -cys auto -dssp -p backbone -pf 1000
; martinize with vermouth 0.14.0
; The following sequence of secondary structure 
; was used for the full system:
; CHHHHHHHHHHHHHHHHHHHHC

; Please cite the following papers:
; Souza, P C T; Alessandri, R; Barnoud, J; Thallmair, S; Faustino, I; Grünewald, F; Patmanidis, I; Abdizadeh, H; Bruininks, B M H; Wassenaar, T A; Kroon, P C; Melcr, J; Nieto, V; Corradi, V; Khan, H M; Domański, J; Javanainen, M; Martinez-Seara, H; Reuter, N; Best, R B; Vattulainen, I; Monticelli, L; Periole, X; Tieleman, D P; de Vries, A H; Marrink, S J;  Nature Methods 2021; 10.1038/s41592-021-01098-3
; Kroon, P C; Grunewald, F; Barnoud, J; van Tilburg, M; Souza, P C; Wassenaar, T A; Marrink, S J;  elife 2024; 10.7554/elife.90627.2
; McGibbon, R T; Beauchamp, K A; Harrigan, M P; Klein, C; Swails, J M; Hernández, C X; Schwantes, C R; Wang, L; Lane, T J; Pande, V S;  Biophysical Journal 2015; 10.1016/j.bpj.2015.08.015

#ifndef POSRES_FC
#define POSRES_FC 1000.0
#endif

[ moleculetype ]
SOLVIA_215 1

[ atoms ]
 1 Q5    1 PHE BB   1   1 
 2 SC4   1 PHE SC1  2 0.0 
 3 TC5   1 PHE SC2  3 0.0 
 4 TC5   1 PHE SC3  4 0.0 
 5 P2    2 LEU BB   5 0.0 
 6 SC2   2 LEU SC1  6 0.0 
 7 SP1   3 GLY BB   7 0.0 
 8 P2    4 SER BB   8 0.0 
 9 TP1   4 SER SC1  9 0.0 
10 P2    5 ILE BB  10 0.0 
11 SC2   5 ILE SC1 11 0.0 
12 SP2   6 VAL BB  12 0.0 
13 SC3   6 VAL SC1 13 0.0 
14 SP1   7 GLY BB  14 0.0 
15 SP2   8 ALA BB  15 0.0 
16 TC3   8 ALA SC1 16 0.0 
17 P2    9 LEU BB  17 0.0 
18 SC2   9 LEU SC1 18 0.0 
19 SP2  10 ALA BB  19 0.0 
20 TC3  10 ALA SC1 20 0.0 
21 P2   11 SER BB  21 0.0 
22 TP1  11 SER SC1 22 0.0 
23 SP2  12 ALA BB  23 0.0 
24 TC3  12 ALA SC1 24 0.0 
25 P2   13 LEU BB  25 0.0 
26 SC2  13 LEU SC1 26 0.0 
27 SP2a 14 PRO BB  27 0.0 
28 SC3  14 PRO SC1 28 0.0 
29 P2   15 SER BB  29 0.0 
30 TP1  15 SER SC1 30 0.0 
31 P2   16 LEU BB  31 0.0 
32 SC2  16 LEU SC1 32 0.0 
33 P2   17 ILE BB  33 0.0 
34 SC2  17 ILE SC1 34 0.0 
35 P2   18 SER BB  35 0.0 
36 TP1  18 SER SC1 36 0.0 
37 P2   19 LYS BB  37 0.0 
38 SC3  19 LYS SC1 38 0.0 
39 SQ4p 19 LYS SC2 39 1.0 
40 P2   20 ILE BB  40 0.0 
41 SC2  20 ILE SC1 41 0.0 
42 P2   21 ARG BB  42 0.0 
43 SC3  21 ARG SC1 43 0.0 
44 SQ3p 21 ARG SC2 44 1.0 
45 P6   22 ASN BB  45   0 
46 SP5  22 ASN SC1 46 0.0 

[ position_restraints ]
#ifdef POSRES
 1 1 POSRES_FC POSRES_FC POSRES_FC
 5 1 POSRES_FC POSRES_FC POSRES_FC
 7 1 POSRES_FC POSRES_FC POSRES_FC
 8 1 POSRES_FC POSRES_FC POSRES_FC
10 1 POSRES_FC POSRES_FC POSRES_FC
12 1 POSRES_FC POSRES_FC POSRES_FC
14 1 POSRES_FC POSRES_FC POSRES_FC
15 1 POSRES_FC POSRES_FC POSRES_FC
17 1 POSRES_FC POSRES_FC POSRES_FC
19 1 POSRES_FC POSRES_FC POSRES_FC
21 1 POSRES_FC POSRES_FC POSRES_FC
23 1 POSRES_FC POSRES_FC POSRES_FC
25 1 POSRES_FC POSRES_FC POSRES_FC
27 1 POSRES_FC POSRES_FC POSRES_FC
29 1 POSRES_FC POSRES_FC POSRES_FC
31 1 POSRES_FC POSRES_FC POSRES_FC
33 1 POSRES_FC POSRES_FC POSRES_FC
35 1 POSRES_FC POSRES_FC POSRES_FC
37 1 POSRES_FC POSRES_FC POSRES_FC
40 1 POSRES_FC POSRES_FC POSRES_FC
42 1 POSRES_FC POSRES_FC POSRES_FC
45 1 POSRES_FC POSRES_FC POSRES_FC
#endif

[ bonds ]
; Side chain bonds
 1  2 1 0.325 7500
 5  6 1 0.363 7500
 8  9 1 0.287 7500
17 18 1 0.363 7500
21 22 1 0.287 7500
25 26 1 0.363 7500
27 28 1 0.330 7500
29 30 1 0.287 7500
31 32 1 0.363 7500
35 36 1 0.287 7500
37 38 1 0.330 5000
38 39 1 0.360 5000
42 43 1 0.330 5000
43 44 1 0.380 5000
45 46 1 0.352 5000

#ifdef FLEXIBLE
; Side chain bonds
 2  3 1 0.340 1000000
 2  4 1 0.340 1000000
 3  4 1 0.290 1000000
10 11 1 0.341 1000000
12 13 1 0.292 1000000
15 16 1 0.270 1000000
19 20 1 0.270 1000000
23 24 1 0.270 1000000
33 34 1 0.341 1000000
40 41 1 0.341 1000000
#endif

[ constraints ]
; Backbone bonds
 1  5 1 0.33
 5  7 1 0.310
 7  8 1 0.310
 8 10 1 0.310
10 12 1 0.310
12 14 1 0.310
14 15 1 0.310
15 17 1 0.310
17 19 1 0.310
19 21 1 0.310
21 23 1 0.310
23 25 1 0.310
25 27 1 0.310
27 29 1 0.310
29 31 1 0.310
31 33 1 0.310
33 35 1 0.310
35 37 1 0.310
37 40 1 0.310
40 42 1 0.310
42 45 1 0.33

#ifndef FLEXIBLE
; Side chain bonds
 2  3 1 0.340
 2  4 1 0.340
 3  4 1 0.290
10 11 1 0.341
12 13 1 0.292
15 16 1 0.270
19 20 1 0.270
23 24 1 0.270
33 34 1 0.341
40 41 1 0.341
#endif

[ angles ]
; BBB angles
 1  5  7 10 127 20
 5  7  8 2 96 700
 7  8 10 2 96 700
 8 10 12 2 96 700
10 12 14 2 96 700
12 14 15 2 96 700
14 15 17 2 96 700
15 17 19 2 96 700
17 19 21 2 96 700
19 21 23 2 96 700
21 23 25 2 96 700
23 25 27 10 98 100
25 27 29 10 98 100
27 29 31 10 98 100
29 31 33 2 96 700
31 33 35 2 96 700
33 35 37 2 96 700
35 37 40 2 96 700
37 40 42 2 96 700
40 42 45 10 127 20

; BBS angles regular martini
 1  5  6 2 100 25
 7  8  9 2 100 25
 8 10 11 2 100 25
10 12 13 2 100 25
14 15 16 2 100 25
15 17 18 2 100 25
17 19 20 2 100 25
19 21 22 2 100 25
21 23 24 2 100 25
23 25 26 2 100 25
25 27 28 2 100 25
27 29 30 2 100 25
29 31 32 2 100 25
31 33 34 2 100 25
33 35 36 2 100 25
35 37 38 2 100 25
37 40 41 2 100 25
40 42 43 2 100 25
42 45 46 2 100 25

; First SBB regular martini
 2  1  5 2 100 25

; SC-BB-BB and BB-BB-SC scFix
 2  1  5 10 100 15 ; SC-BB-BB
 6  5  7 10 100 15 ; SC-BB-BB
 9  8 10 10 100 15 ; SC-BB-BB
11 10 12 10 100 15 ; SC-BB-BB
13 12 14 10 100 15 ; SC-BB-BB
16 15 17 10 100 15 ; SC-BB-BB
18 17 19 10 100 15 ; SC-BB-BB
20 19 21 10 100 15 ; SC-BB-BB
22 21 23 10 100 15 ; SC-BB-BB
24 23 25 10 100 15 ; SC-BB-BB
26 25 27 10 100 15 ; SC-BB-BB
28 27 29 10 100 15 ; SC-BB-BB
30 29 31 10 100 15 ; SC-BB-BB
32 31 33 10 100 15 ; SC-BB-BB
34 33 35 10 100 15 ; SC-BB-BB
36 35 37 10 100 15 ; SC-BB-BB
38 37 40 10 100 15 ; SC-BB-BB
41 40 42 10 100 15 ; SC-BB-BB
43 42 45 10 100 15 ; SC-BB-BB
 1  5  6 10 100 15 ; BB-BB-SC
 7  8  9 10 100 15 ; BB-BB-SC
 8 10 11 10 100 15 ; BB-BB-SC
10 12 13 10 100 15 ; BB-BB-SC
14 15 16 10 100 15 ; BB-BB-SC
15 17 18 10 100 15 ; BB-BB-SC
17 19 20 10 100 15 ; BB-BB-SC
19 21 22 10 100 15 ; BB-BB-SC
21 23 24 10 100 15 ; BB-BB-SC
23 25 26 10 100 15 ; BB-BB-SC
25 27 28 10 100 15 ; BB-BB-SC
27 29 30 10 100 15 ; BB-BB-SC
29 31 32 10 100 15 ; BB-BB-SC
31 33 34 10 100 15 ; BB-BB-SC
33 35 36 10 100 15 ; BB-BB-SC
35 37 38 10 100 15 ; BB-BB-SC
37 40 41 10 100 15 ; BB-BB-SC
40 42 43 10 100 15 ; BB-BB-SC
42 45 46 10 100 15 ; BB-BB-SC

; Side chain angles
 1  2  3 2 120.000 50.0
 1  2  4 2 120.000 50.0
37 38 39 2 180.000 25.0
42 43 44 2 180.000 25.0

[ dihedrals ]
 5  7  8 10 1 -120 400 1
 7  8 10 12 1 -120 400 1
 8 10 12 14 1 -120 400 1
10 12 14 15 1 -120 400 1
12 14 15 17 1 -120 400 1
14 15 17 19 1 -120 400 1
15 17 19 21 1 -120 400 1
17 19 21 23 1 -120 400 1
19 21 23 25 1 -120 400 1
21 23 25 27 1 -120 400 1
23 25 27 29 1 -120 400 1
25 27 29 31 1 -120 400 1
27 29 31 33 1 -120 400 1
29 31 33 35 1 -120 400 1
31 33 35 37 1 -120 400 1
33 35 37 40 1 -120 400 1
35 37 40 42 1 -120 400 1

; SC-BB-BB-SC scFix
 2  1  5  6 1 -135.5 75 1 ; SC-BB-BB-SC
 9  8 10 11 1 -166.7 75 1 ; SC-BB-BB-SC
11 10 12 13 1 -146.3 75 1 ; SC-BB-BB-SC
16 15 17 18 1 -158.4 75 1 ; SC-BB-BB-SC
18 17 19 20 1 -109.0 75 1 ; SC-BB-BB-SC
20 19 21 22 1 -157.3 75 1 ; SC-BB-BB-SC
22 21 23 24 1 -157.4 75 1 ; SC-BB-BB-SC
24 23 25 26 1 -127.6 75 1 ; SC-BB-BB-SC
26 25 27 28 1 -109.5 75 1 ; SC-BB-BB-SC
28 27 29 30 1 175.6 75 1 ; SC-BB-BB-SC
30 29 31 32 1 -136.6 75 1 ; SC-BB-BB-SC
32 31 33 34 1 -143.1 75 1 ; SC-BB-BB-SC
34 33 35 36 1 -134.8 75 1 ; SC-BB-BB-SC
36 35 37 38 1 -130.3 75 1 ; SC-BB-BB-SC
38 37 40 41 1 -149.8 75 1 ; SC-BB-BB-SC
41 40 42 43 1 -149.0 75 1 ; SC-BB-BB-SC
43 42 45 46 1 -144.4 75 1 ; SC-BB-BB-SC
 5  7  8  9 1 99.1 75 1 ; BB-BB-BB-SC
 6  5  7  8 1 39.3 75 1 ; SC-BB-BB-BB
12 14 15 16 1 98.8 75 1 ; BB-BB-BB-SC
13 12 14 15 1 12.2 75 1 ; SC-BB-BB-BB

[ exclusions ]
 1  2  3  4 
 2  3  4 
 3  4 

