; This file was generated using the following command:
; /opt/conda/bin/martinize2 -f /work/simulations/solvia_32_run_1/colabfold/best_model.pdb -ff martini3001 -x /work/simulations/solvia_32_run_1/coarse_grain/SOLVIA_32_cg.pdb -o /work/simulations/solvia_32_run_1/coarse_grain/SOLVIA_32.itp -name SOLVIA_32 -cter NH2-ter -maxwarn 1 -cys auto -dssp -p backbone -pf 1000
; martinize with vermouth 0.14.0
; The following sequence of secondary structure 
; was used for the full system:
; CHHHHHHHHHHHHHHHHHHHHHHHC

; Please cite the following papers:
; Souza, P C T; Alessandri, R; Barnoud, J; Thallmair, S; Faustino, I; Grünewald, F; Patmanidis, I; Abdizadeh, H; Bruininks, B M H; Wassenaar, T A; Kroon, P C; Melcr, J; Nieto, V; Corradi, V; Khan, H M; Domański, J; Javanainen, M; Martinez-Seara, H; Reuter, N; Best, R B; Vattulainen, I; Monticelli, L; Periole, X; Tieleman, D P; de Vries, A H; Marrink, S J;  Nature Methods 2021; 10.1038/s41592-021-01098-3
; Kroon, P C; Grunewald, F; Barnoud, J; van Tilburg, M; Souza, P C; Wassenaar, T A; Marrink, S J;  elife 2024; 10.7554/elife.90627.2
; McGibbon, R T; Beauchamp, K A; Harrigan, M P; Klein, C; Swails, J M; Hernández, C X; Schwantes, C R; Wang, L; Lane, T J; Pande, V S;  Biophysical Journal 2015; 10.1016/j.bpj.2015.08.015

#ifndef POSRES_FC
#define POSRES_FC 1000.0
#endif

[ moleculetype ]
SOLVIA_32 1

[ atoms ]
 1 Q5    1 GLY BB   1    1 
 2 P2    2 LEU BB   2  0.0 
 3 SC2   2 LEU SC1  3  0.0 
 4 P2    3 LEU BB   4  0.0 
 5 SC2   3 LEU SC1  5  0.0 
 6 P2    4 SER BB   6  0.0 
 7 TP1   4 SER SC1  7  0.0 
 8 SP2   5 VAL BB   8  0.0 
 9 SC3   5 VAL SC1  9  0.0 
10 P2    6 LEU BB  10  0.0 
11 SC2   6 LEU SC1 11  0.0 
12 SP1   7 GLY BB  12  0.0 
13 P2    8 SER BB  13  0.0 
14 TP1   8 SER SC1 14  0.0 
15 SP2   9 VAL BB  15  0.0 
16 SC3   9 VAL SC1 16  0.0 
17 SP2  10 ALA BB  17  0.0 
18 TC3  10 ALA SC1 18  0.0 
19 P2   11 LYS BB  19  0.0 
20 SC3  11 LYS SC1 20  0.0 
21 SQ4p 11 LYS SC2 21  1.0 
22 P2   12 HIS BB  22  0.0 
23 TC4  12 HIS SC1 23  0.0 
24 TN6d 12 HIS SC2 24  0.0 
25 TN5a 12 HIS SC3 25  0.0 
26 SP2  13 VAL BB  26  0.0 
27 SC3  13 VAL SC1 27  0.0 
28 P2   14 LEU BB  28  0.0 
29 SC2  14 LEU SC1 29  0.0 
30 SP2a 15 PRO BB  30  0.0 
31 SC3  15 PRO SC1 31  0.0 
32 P2   16 HIS BB  32  0.0 
33 TC4  16 HIS SC1 33  0.0 
34 TN6d 16 HIS SC2 34  0.0 
35 TN5a 16 HIS SC3 35  0.0 
36 SP2  17 VAL BB  36  0.0 
37 SC3  17 VAL SC1 37  0.0 
38 SP2  18 VAL BB  38  0.0 
39 SC3  18 VAL SC1 39  0.0 
40 SP2a 19 PRO BB  40  0.0 
41 SC3  19 PRO SC1 41  0.0 
42 SP2  20 VAL BB  42  0.0 
43 SC3  20 VAL SC1 43  0.0 
44 P2   21 ILE BB  44  0.0 
45 SC2  21 ILE SC1 45  0.0 
46 SP2  22 ALA BB  46  0.0 
47 TC3  22 ALA SC1 47  0.0 
48 P2   23 GLU BB  48  0.0 
49 Q5n  23 GLU SC1 49 -1.0 
50 P2   24 LYS BB  50  0.0 
51 SC3  24 LYS SC1 51  0.0 
52 SQ4p 24 LYS SC2 52  1.0 
53 P6   25 LEU BB  53    0 
54 SC2  25 LEU SC1 54  0.0 

[ position_restraints ]
#ifdef POSRES
 1 1 POSRES_FC POSRES_FC POSRES_FC
 2 1 POSRES_FC POSRES_FC POSRES_FC
 4 1 POSRES_FC POSRES_FC POSRES_FC
 6 1 POSRES_FC POSRES_FC POSRES_FC
 8 1 POSRES_FC POSRES_FC POSRES_FC
10 1 POSRES_FC POSRES_FC POSRES_FC
12 1 POSRES_FC POSRES_FC POSRES_FC
13 1 POSRES_FC POSRES_FC POSRES_FC
15 1 POSRES_FC POSRES_FC POSRES_FC
17 1 POSRES_FC POSRES_FC POSRES_FC
19 1 POSRES_FC POSRES_FC POSRES_FC
22 1 POSRES_FC POSRES_FC POSRES_FC
26 1 POSRES_FC POSRES_FC POSRES_FC
28 1 POSRES_FC POSRES_FC POSRES_FC
30 1 POSRES_FC POSRES_FC POSRES_FC
32 1 POSRES_FC POSRES_FC POSRES_FC
36 1 POSRES_FC POSRES_FC POSRES_FC
38 1 POSRES_FC POSRES_FC POSRES_FC
40 1 POSRES_FC POSRES_FC POSRES_FC
42 1 POSRES_FC POSRES_FC POSRES_FC
44 1 POSRES_FC POSRES_FC POSRES_FC
46 1 POSRES_FC POSRES_FC POSRES_FC
48 1 POSRES_FC POSRES_FC POSRES_FC
50 1 POSRES_FC POSRES_FC POSRES_FC
53 1 POSRES_FC POSRES_FC POSRES_FC
#endif

[ bonds ]
; Side chain bonds
 2  3 1 0.363 7500
 4  5 1 0.363 7500
 6  7 1 0.287 7500
10 11 1 0.363 7500
13 14 1 0.287 7500
19 20 1 0.330 5000
20 21 1 0.360 5000
22 23 1 0.336 7500
28 29 1 0.363 7500
30 31 1 0.330 7500
32 33 1 0.336 7500
40 41 1 0.330 7500
48 49 1 0.400 5000
50 51 1 0.330 5000
51 52 1 0.360 5000
53 54 1 0.363 7500

#ifdef FLEXIBLE
; Side chain bonds
 8  9 1 0.292 1000000
15 16 1 0.292 1000000
17 18 1 0.270 1000000
23 24 1 0.320 1000000
23 25 1 0.300 1000000
24 25 1 0.270 1000000
26 27 1 0.292 1000000
33 34 1 0.320 1000000
33 35 1 0.300 1000000
34 35 1 0.270 1000000
36 37 1 0.292 1000000
38 39 1 0.292 1000000
42 43 1 0.292 1000000
44 45 1 0.341 1000000
46 47 1 0.270 1000000
#endif

[ constraints ]
; Backbone bonds
 1  2 1 0.33
 2  4 1 0.310
 4  6 1 0.310
 6  8 1 0.310
 8 10 1 0.310
10 12 1 0.310
12 13 1 0.310
13 15 1 0.310
15 17 1 0.310
17 19 1 0.310
19 22 1 0.310
22 26 1 0.310
26 28 1 0.310
28 30 1 0.310
30 32 1 0.310
32 36 1 0.310
36 38 1 0.310
38 40 1 0.310
40 42 1 0.310
42 44 1 0.310
44 46 1 0.310
46 48 1 0.310
48 50 1 0.310
50 53 1 0.33

#ifndef FLEXIBLE
; Side chain bonds
 8  9 1 0.292
15 16 1 0.292
17 18 1 0.270
23 24 1 0.320
23 25 1 0.300
24 25 1 0.270
26 27 1 0.292
33 34 1 0.320
33 35 1 0.300
34 35 1 0.270
36 37 1 0.292
38 39 1 0.292
42 43 1 0.292
44 45 1 0.341
46 47 1 0.270
#endif

[ angles ]
; BBB angles
 1  2  4 10 127 20
 2  4  6 2 96 700
 4  6  8 2 96 700
 6  8 10 2 96 700
 8 10 12 2 96 700
10 12 13 2 96 700
12 13 15 2 96 700
13 15 17 2 96 700
15 17 19 2 96 700
17 19 22 2 96 700
19 22 26 2 96 700
22 26 28 2 96 700
26 28 30 10 98 100
28 30 32 10 98 100
30 32 36 10 98 100
32 36 38 2 96 700
36 38 40 10 98 100
38 40 42 10 98 100
40 42 44 10 98 100
42 44 46 2 96 700
44 46 48 2 96 700
46 48 50 2 96 700
48 50 53 10 127 20

; BBS angles regular martini
 1  2  3 2 100 25
 2  4  5 2 100 25
 4  6  7 2 100 25
 6  8  9 2 100 25
 8 10 11 2 100 25
12 13 14 2 100 25
13 15 16 2 100 25
15 17 18 2 100 25
17 19 20 2 100 25
19 22 23 2 100 25
22 26 27 2 100 25
26 28 29 2 100 25
28 30 31 2 100 25
30 32 33 2 100 25
32 36 37 2 100 25
36 38 39 2 100 25
38 40 41 2 100 25
40 42 43 2 100 25
42 44 45 2 100 25
44 46 47 2 100 25
46 48 49 2 100 25
48 50 51 2 100 25
50 53 54 2 100 25

; SC-BB-BB and BB-BB-SC scFix
 3  2  4 10 100 15 ; SC-BB-BB
 5  4  6 10 100 15 ; SC-BB-BB
 7  6  8 10 100 15 ; SC-BB-BB
 9  8 10 10 100 15 ; SC-BB-BB
11 10 12 10 100 15 ; SC-BB-BB
14 13 15 10 100 15 ; SC-BB-BB
16 15 17 10 100 15 ; SC-BB-BB
18 17 19 10 100 15 ; SC-BB-BB
20 19 22 10 100 15 ; SC-BB-BB
23 22 26 10 100 15 ; SC-BB-BB
27 26 28 10 100 15 ; SC-BB-BB
29 28 30 10 100 15 ; SC-BB-BB
31 30 32 10 100 15 ; SC-BB-BB
33 32 36 10 100 15 ; SC-BB-BB
37 36 38 10 100 15 ; SC-BB-BB
39 38 40 10 100 15 ; SC-BB-BB
41 40 42 10 100 15 ; SC-BB-BB
43 42 44 10 100 15 ; SC-BB-BB
45 44 46 10 100 15 ; SC-BB-BB
47 46 48 10 100 15 ; SC-BB-BB
49 48 50 10 100 15 ; SC-BB-BB
51 50 53 10 100 15 ; SC-BB-BB
 1  2  3 10 100 15 ; BB-BB-SC
 2  4  5 10 100 15 ; BB-BB-SC
 4  6  7 10 100 15 ; BB-BB-SC
 6  8  9 10 100 15 ; BB-BB-SC
 8 10 11 10 100 15 ; BB-BB-SC
12 13 14 10 100 15 ; BB-BB-SC
13 15 16 10 100 15 ; BB-BB-SC
15 17 18 10 100 15 ; BB-BB-SC
17 19 20 10 100 15 ; BB-BB-SC
19 22 23 10 100 15 ; BB-BB-SC
22 26 27 10 100 15 ; BB-BB-SC
26 28 29 10 100 15 ; BB-BB-SC
28 30 31 10 100 15 ; BB-BB-SC
30 32 33 10 100 15 ; BB-BB-SC
32 36 37 10 100 15 ; BB-BB-SC
36 38 39 10 100 15 ; BB-BB-SC
38 40 41 10 100 15 ; BB-BB-SC
40 42 43 10 100 15 ; BB-BB-SC
42 44 45 10 100 15 ; BB-BB-SC
44 46 47 10 100 15 ; BB-BB-SC
46 48 49 10 100 15 ; BB-BB-SC
48 50 51 10 100 15 ; BB-BB-SC
50 53 54 10 100 15 ; BB-BB-SC

; Side chain angles
19 20 21 2 180.000 25.0
22 23 24 2 120.000 50.0
22 23 25 2 120.000 50.0
32 33 34 2 120.000 50.0
32 33 35 2 120.000 50.0
50 51 52 2 180.000 25.0

[ dihedrals ]
 2  4  6  8 1 -120 400 1
 4  6  8 10 1 -120 400 1
 6  8 10 12 1 -120 400 1
 8 10 12 13 1 -120 400 1
10 12 13 15 1 -120 400 1
12 13 15 17 1 -120 400 1
13 15 17 19 1 -120 400 1
15 17 19 22 1 -120 400 1
17 19 22 26 1 -120 400 1
19 22 26 28 1 -120 400 1
22 26 28 30 1 -120 400 1
26 28 30 32 1 -120 400 1
28 30 32 36 1 -120 400 1
30 32 36 38 1 -120 400 1
32 36 38 40 1 -120 400 1
36 38 40 42 1 -120 400 1
38 40 42 44 1 -120 400 1
40 42 44 46 1 -120 400 1
42 44 46 48 1 -120 400 1
44 46 48 50 1 -120 400 1

; SC-BB-BB-SC scFix
 3  2  4  5 1 -123.9 75 1 ; SC-BB-BB-SC
 5  4  6  7 1 -145.9 75 1 ; SC-BB-BB-SC
 7  6  8  9 1 -157.9 75 1 ; SC-BB-BB-SC
 9  8 10 11 1 -141.8 75 1 ; SC-BB-BB-SC
14 13 15 16 1 -129.3 75 1 ; SC-BB-BB-SC
16 15 17 18 1 -124.3 75 1 ; SC-BB-BB-SC
18 17 19 20 1 -154.3 75 1 ; SC-BB-BB-SC
20 19 22 23 1 -154.7 75 1 ; SC-BB-BB-SC
23 22 26 27 1 -144.4 75 1 ; SC-BB-BB-SC
27 26 28 29 1 -129.5 75 1 ; SC-BB-BB-SC
29 28 30 31 1 -119.2 75 1 ; SC-BB-BB-SC
31 30 32 33 1 148.0 75 1 ; SC-BB-BB-SC
33 32 36 37 1 -165.2 75 1 ; SC-BB-BB-SC
37 36 38 39 1 -121.4 75 1 ; SC-BB-BB-SC
39 38 40 41 1 -121.4 75 1 ; SC-BB-BB-SC
41 40 42 43 1 167.6 75 1 ; SC-BB-BB-SC
43 42 44 45 1 -142.0 75 1 ; SC-BB-BB-SC
45 44 46 47 1 -134.6 75 1 ; SC-BB-BB-SC
47 46 48 49 1 -178.5 75 1 ; SC-BB-BB-SC
49 48 50 51 1 -124.4 75 1 ; SC-BB-BB-SC
51 50 53 54 1 -152.2 75 1 ; SC-BB-BB-SC
10 12 13 14 1 95.8 75 1 ; BB-BB-BB-SC
11 10 12 13 1 32.5 75 1 ; SC-BB-BB-BB

[ exclusions ]
22 23 24 25 
23 24 25 
24 25 
32 33 34 35 
33 34 35 
34 35 

