; This file was generated using the following command:
; /opt/conda/bin/martinize2 -f /work/simulations/solvia_126_run_1/colabfold/best_model.pdb -ff martini3001 -x /work/simulations/solvia_126_run_1/coarse_grain/SOLVIA_126_cg.pdb -o /work/simulations/solvia_126_run_1/coarse_grain/SOLVIA_126.itp -name SOLVIA_126 -cter NH2-ter -maxwarn 1 -cys auto -dssp -p backbone -pf 1000
; martinize with vermouth 0.14.0
; The following sequence of secondary structure 
; was used for the full system:
; CHHHHHHHHHHHHHHHHCCC

; Please cite the following papers:
; McGibbon, R T; Beauchamp, K A; Harrigan, M P; Klein, C; Swails, J M; Hernández, C X; Schwantes, C R; Wang, L; Lane, T J; Pande, V S;  Biophysical Journal 2015; 10.1016/j.bpj.2015.08.015
; Kroon, P C; Grunewald, F; Barnoud, J; van Tilburg, M; Souza, P C; Wassenaar, T A; Marrink, S J;  elife 2024; 10.7554/elife.90627.2
; Souza, P C T; Alessandri, R; Barnoud, J; Thallmair, S; Faustino, I; Grünewald, F; Patmanidis, I; Abdizadeh, H; Bruininks, B M H; Wassenaar, T A; Kroon, P C; Melcr, J; Nieto, V; Corradi, V; Khan, H M; Domański, J; Javanainen, M; Martinez-Seara, H; Reuter, N; Best, R B; Vattulainen, I; Monticelli, L; Periole, X; Tieleman, D P; de Vries, A H; Marrink, S J;  Nature Methods 2021; 10.1038/s41592-021-01098-3

#ifndef POSRES_FC
#define POSRES_FC 1000.0
#endif

[ moleculetype ]
SOLVIA_126 1

[ atoms ]
 1 Q5    1 PHE BB   1   1 
 2 SC4   1 PHE SC1  2 0.0 
 3 TC5   1 PHE SC2  3 0.0 
 4 TC5   1 PHE SC3  4 0.0 
 5 P2    2 LEU BB   5 0.0 
 6 SC2   2 LEU SC1  6 0.0 
 7 SP1   3 GLY BB   7 0.0 
 8 SP1   4 GLY BB   8 0.0 
 9 P2    5 LEU BB   9 0.0 
10 SC2   5 LEU SC1 10 0.0 
11 P2    6 ILE BB  11 0.0 
12 SC2   6 ILE SC1 12 0.0 
13 P2    7 LYS BB  13 0.0 
14 SC3   7 LYS SC1 14 0.0 
15 SQ4p  7 LYS SC2 15 1.0 
16 P2    8 ILE BB  16 0.0 
17 SC2   8 ILE SC1 17 0.0 
18 SP2   9 VAL BB  18 0.0 
19 SC3   9 VAL SC1 19 0.0 
20 SP2a 10 PRO BB  20 0.0 
21 SC3  10 PRO SC1 21 0.0 
22 SP2  11 ALA BB  22 0.0 
23 TC3  11 ALA SC1 23 0.0 
24 P2   12 MET BB  24 0.0 
25 C6   12 MET SC1 25 0.0 
26 P2   13 ILE BB  26 0.0 
27 SC2  13 ILE SC1 27 0.0 
28 P2   14 CYS BB  28 0.0 
29 TC6  14 CYS SC1 29 0.0 
30 SP2  15 ALA BB  30 0.0 
31 TC3  15 ALA SC1 31 0.0 
32 SP2  16 VAL BB  32 0.0 
33 SC3  16 VAL SC1 33 0.0 
34 P2   17 THR BB  34 0.0 
35 SP1  17 THR SC1 35 0.0 
36 P2   18 LYS BB  36 0.0 
37 SC3  18 LYS SC1 37 0.0 
38 SQ4p 18 LYS SC2 38 1.0 
39 P2   19 LYS BB  39 0.0 
40 SC3  19 LYS SC1 40 0.0 
41 SQ4p 19 LYS SC2 41 1.0 
42 P6   20 CYS BB  42   0 
43 TC6  20 CYS SC1 43 0.0 

[ position_restraints ]
#ifdef POSRES
 1 1 POSRES_FC POSRES_FC POSRES_FC
 5 1 POSRES_FC POSRES_FC POSRES_FC
 7 1 POSRES_FC POSRES_FC POSRES_FC
 8 1 POSRES_FC POSRES_FC POSRES_FC
 9 1 POSRES_FC POSRES_FC POSRES_FC
11 1 POSRES_FC POSRES_FC POSRES_FC
13 1 POSRES_FC POSRES_FC POSRES_FC
16 1 POSRES_FC POSRES_FC POSRES_FC
18 1 POSRES_FC POSRES_FC POSRES_FC
20 1 POSRES_FC POSRES_FC POSRES_FC
22 1 POSRES_FC POSRES_FC POSRES_FC
24 1 POSRES_FC POSRES_FC POSRES_FC
26 1 POSRES_FC POSRES_FC POSRES_FC
28 1 POSRES_FC POSRES_FC POSRES_FC
30 1 POSRES_FC POSRES_FC POSRES_FC
32 1 POSRES_FC POSRES_FC POSRES_FC
34 1 POSRES_FC POSRES_FC POSRES_FC
36 1 POSRES_FC POSRES_FC POSRES_FC
39 1 POSRES_FC POSRES_FC POSRES_FC
42 1 POSRES_FC POSRES_FC POSRES_FC
#endif

[ bonds ]
; Backbone bonds
36 39 1 0.350 4000
39 42 1 0.350 4000

; Side chain bonds
 1  2 1 0.325 7500
 5  6 1 0.363 7500
 9 10 1 0.363 7500
13 14 1 0.330 5000
14 15 1 0.360 5000
20 21 1 0.330 7500
24 25 1 0.40 2500
28 29 1 0.341 7500
36 37 1 0.330 5000
37 38 1 0.360 5000
39 40 1 0.330 5000
40 41 1 0.360 5000
42 43 1 0.341 7500

#ifdef FLEXIBLE
; Side chain bonds
 2  3 1 0.340 1000000
 2  4 1 0.340 1000000
 3  4 1 0.290 1000000
11 12 1 0.341 1000000
16 17 1 0.341 1000000
18 19 1 0.292 1000000
22 23 1 0.270 1000000
26 27 1 0.341 1000000
30 31 1 0.270 1000000
32 33 1 0.292 1000000
34 35 1 0.305 1000000
#endif

[ constraints ]
; Backbone bonds
 1  5 1 0.33
 5  7 1 0.310
 7  8 1 0.310
 8  9 1 0.310
 9 11 1 0.310
11 13 1 0.310
13 16 1 0.310
16 18 1 0.310
18 20 1 0.310
20 22 1 0.310
22 24 1 0.310
24 26 1 0.310
26 28 1 0.310
28 30 1 0.310
30 32 1 0.310
32 34 1 0.310
34 36 1 0.33

#ifndef FLEXIBLE
; Side chain bonds
 2  3 1 0.340
 2  4 1 0.340
 3  4 1 0.290
11 12 1 0.341
16 17 1 0.341
18 19 1 0.292
22 23 1 0.270
26 27 1 0.341
30 31 1 0.270
32 33 1 0.292
34 35 1 0.305
#endif

[ angles ]
; BBB angles
 1  5  7 10 127 20
 5  7  8 2 96 700
 7  8  9 2 96 700
 8  9 11 2 96 700
 9 11 13 2 96 700
11 13 16 2 96 700
13 16 18 2 96 700
16 18 20 10 98 100
18 20 22 10 98 100
20 22 24 10 98 100
22 24 26 2 96 700
24 26 28 2 96 700
26 28 30 2 96 700
28 30 32 2 96 700
30 32 34 2 96 700
32 34 36 10 127 20
34 36 39 10 127 20
36 39 42 10 127 20

; BBS angles regular martini
 1  5  6 2 100 25
 8  9 10 2 100 25
 9 11 12 2 100 25
11 13 14 2 100 25
13 16 17 2 100 25
16 18 19 2 100 25
18 20 21 2 100 25
20 22 23 2 100 25
22 24 25 2 100 25
24 26 27 2 100 25
26 28 29 2 100 25
28 30 31 2 100 25
30 32 33 2 100 25
32 34 35 2 100 25
34 36 37 2 100 25
36 39 40 2 100 25
39 42 43 2 100 25

; First SBB regular martini
 2  1  5 2 100 25

; SC-BB-BB and BB-BB-SC scFix
 2  1  5 10 100 15 ; SC-BB-BB
 6  5  7 10 100 15 ; SC-BB-BB
10  9 11 10 100 15 ; SC-BB-BB
12 11 13 10 100 15 ; SC-BB-BB
14 13 16 10 100 15 ; SC-BB-BB
17 16 18 10 100 15 ; SC-BB-BB
19 18 20 10 100 15 ; SC-BB-BB
21 20 22 10 100 15 ; SC-BB-BB
23 22 24 10 100 15 ; SC-BB-BB
25 24 26 10 100 15 ; SC-BB-BB
27 26 28 10 100 15 ; SC-BB-BB
29 28 30 10 100 15 ; SC-BB-BB
31 30 32 10 100 15 ; SC-BB-BB
33 32 34 10 100 15 ; SC-BB-BB
35 34 36 10 100 15 ; SC-BB-BB
37 36 39 10 100 15 ; SC-BB-BB
40 39 42 10 100 15 ; SC-BB-BB
 1  5  6 10 100 15 ; BB-BB-SC
 8  9 10 10 100 15 ; BB-BB-SC
 9 11 12 10 100 15 ; BB-BB-SC
11 13 14 10 100 15 ; BB-BB-SC
13 16 17 10 100 15 ; BB-BB-SC
16 18 19 10 100 15 ; BB-BB-SC
18 20 21 10 100 15 ; BB-BB-SC
20 22 23 10 100 15 ; BB-BB-SC
22 24 25 10 100 15 ; BB-BB-SC
24 26 27 10 100 15 ; BB-BB-SC
26 28 29 10 100 15 ; BB-BB-SC
28 30 31 10 100 15 ; BB-BB-SC
30 32 33 10 100 15 ; BB-BB-SC
32 34 35 10 100 15 ; BB-BB-SC
34 36 37 10 100 15 ; BB-BB-SC
36 39 40 10 100 15 ; BB-BB-SC
39 42 43 10 100 15 ; BB-BB-SC

; Side chain angles
 1  2  3 2 120.000 50.0
 1  2  4 2 120.000 50.0
13 14 15 2 180.000 25.0
36 37 38 2 180.000 25.0
39 40 41 2 180.000 25.0

[ dihedrals ]
 5  7  8  9 1 -120 400 1
 7  8  9 11 1 -120 400 1
 8  9 11 13 1 -120 400 1
 9 11 13 16 1 -120 400 1
11 13 16 18 1 -120 400 1
13 16 18 20 1 -120 400 1
16 18 20 22 1 -120 400 1
18 20 22 24 1 -120 400 1
20 22 24 26 1 -120 400 1
22 24 26 28 1 -120 400 1
24 26 28 30 1 -120 400 1
26 28 30 32 1 -120 400 1
28 30 32 34 1 -120 400 1

; SC-BB-BB-SC scFix
 2  1  5  6 1 -159.8 75 1 ; SC-BB-BB-SC
10  9 11 12 1 -117.9 75 1 ; SC-BB-BB-SC
12 11 13 14 1 -151.8 75 1 ; SC-BB-BB-SC
14 13 16 17 1 -148.3 75 1 ; SC-BB-BB-SC
17 16 18 19 1 -126.0 75 1 ; SC-BB-BB-SC
19 18 20 21 1 -124.8 75 1 ; SC-BB-BB-SC
21 20 22 23 1 175.8 75 1 ; SC-BB-BB-SC
23 22 24 25 1 -150.7 75 1 ; SC-BB-BB-SC
25 24 26 27 1 -119.2 75 1 ; SC-BB-BB-SC
27 26 28 29 1 -138.5 75 1 ; SC-BB-BB-SC
29 28 30 31 1 -113.0 75 1 ; SC-BB-BB-SC
31 30 32 33 1 -164.6 75 1 ; SC-BB-BB-SC
33 32 34 35 1 -154.7 75 1 ; SC-BB-BB-SC
35 34 36 37 1 -3.6 75 1 ; SC-BB-BB-SC
37 36 39 40 1 -15.4 75 1 ; SC-BB-BB-SC
40 39 42 43 1 19.9 75 1 ; SC-BB-BB-SC
 7  8  9 10 1 86.1 75 1 ; BB-BB-BB-SC
 6  5  7  8 1 31.6 75 1 ; SC-BB-BB-BB

[ exclusions ]
 1  2  3  4 
 2  3  4 
 3  4 

