; This file was generated using the following command:
; /opt/conda/bin/martinize2 -f /work/simulations/solvia_2012_run_1/colabfold/best_model.pdb -ff martini3001 -x /work/simulations/solvia_2012_run_1/coarse_grain/SOLVIA_2012_cg.pdb -o /work/simulations/solvia_2012_run_1/coarse_grain/SOLVIA_2012.itp -name SOLVIA_2012 -cter NH2-ter -maxwarn 1 -cys auto -dssp -p backbone -pf 1000
; martinize with vermouth 0.15.0
; The following sequence of secondary structure 
; was used for the full system:
; CHHHHHHHHHHHHHHHHHHHHHTC

; Please cite the following papers:
; Kroon, P C; Grunewald, F; Barnoud, J; van Tilburg, M; Souza, P C; Wassenaar, T A; Marrink, S J;  elife 2024; 10.7554/elife.90627.2
; McGibbon, R T; Beauchamp, K A; Harrigan, M P; Klein, C; Swails, J M; Hernández, C X; Schwantes, C R; Wang, L; Lane, T J; Pande, V S;  Biophysical Journal 2015; 10.1016/j.bpj.2015.08.015
; Souza, P C T; Alessandri, R; Barnoud, J; Thallmair, S; Faustino, I; Grünewald, F; Patmanidis, I; Abdizadeh, H; Bruininks, B M H; Wassenaar, T A; Kroon, P C; Melcr, J; Nieto, V; Corradi, V; Khan, H M; Domański, J; Javanainen, M; Martinez-Seara, H; Reuter, N; Best, R B; Vattulainen, I; Monticelli, L; Periole, X; Tieleman, D P; de Vries, A H; Marrink, S J;  Nature Methods 2021; 10.1038/s41592-021-01098-3

#ifndef POSRES_FC
#define POSRES_FC 1000.0
#endif

[ moleculetype ]
SOLVIA_2012 1

[ atoms ]
 1 Q5    1 ALA BB   1   1     
 2 TC3   1 ALA SC1  2 0.0     
 3 P2    2 TRP BB   3 0.0     
 4 TC4   2 TRP SC1  4 0.0 36.0
 5 TN6d  2 TRP SC2  5 0.0 36.0
 6 TC5   2 TRP SC3  6 0.0  0.0
 7 TC5   2 TRP SC4  7 0.0 36.0
 8 TC5   2 TRP SC5  8 0.0 36.0
 9 P2    3 GLN BB   9 0.0     
10 P5    3 GLN SC1 10 0.0     
11 SP2   4 ALA BB  11 0.0     
12 TC3   4 ALA SC1 12 0.0     
13 P2    5 ILE BB  13 0.0     
14 SC2   5 ILE SC1 14 0.0     
15 SP2   6 ALA BB  15 0.0     
16 TC3   6 ALA SC1 16 0.0     
17 P2    7 ARG BB  17 0.0     
18 SC3   7 ARG SC1 18 0.0     
19 SQ3p  7 ARG SC2 19 1.0     
20 P2    8 LEU BB  20 0.0     
21 SC2   8 LEU SC1 21 0.0     
22 P2    9 ILE BB  22 0.0     
23 SC2   9 ILE SC1 23 0.0     
24 P2   10 LYS BB  24 0.0     
25 SC3  10 LYS SC1 25 0.0     
26 SQ4p 10 LYS SC2 26 1.0     
27 SP1  11 GLY BB  27 0.0     
28 P2   12 ARG BB  28 0.0     
29 SC3  12 ARG SC1 29 0.0     
30 SQ3p 12 ARG SC2 30 1.0     
31 SP1  13 GLY BB  31 0.0     
32 P2   14 ARG BB  32 0.0     
33 SC3  14 ARG SC1 33 0.0     
34 SQ3p 14 ARG SC2 34 1.0     
35 P2   15 LYS BB  35 0.0     
36 SC3  15 LYS SC1 36 0.0     
37 SQ4p 15 LYS SC2 37 1.0     
38 P2   16 LYS BB  38 0.0     
39 SC3  16 LYS SC1 39 0.0     
40 SQ4p 16 LYS SC2 40 1.0     
41 P2   17 TYR BB  41 0.0     
42 TC4  17 TYR SC1 42 0.0     
43 TC5  17 TYR SC2 43 0.0     
44 TC5  17 TYR SC3 44 0.0     
45 TN6  17 TYR SC4 45 0.0     
46 SP1  18 GLY BB  46 0.0     
47 P2   19 ARG BB  47 0.0     
48 SC3  19 ARG SC1 48 0.0     
49 SQ3p 19 ARG SC2 49 1.0     
50 P2   20 ILE BB  50 0.0     
51 SC2  20 ILE SC1 51 0.0     
52 P2   21 ILE BB  52 0.0     
53 SC2  21 ILE SC1 53 0.0     
54 P2   22 ILE BB  54 0.0     
55 SC2  22 ILE SC1 55 0.0     
56 P2   23 ILE BB  56 0.0     
57 SC2  23 ILE SC1 57 0.0     
58 P6   24 GLY BB  58   0     

[ position_restraints ]
#ifdef POSRES
 1 1 POSRES_FC POSRES_FC POSRES_FC
 3 1 POSRES_FC POSRES_FC POSRES_FC
 9 1 POSRES_FC POSRES_FC POSRES_FC
11 1 POSRES_FC POSRES_FC POSRES_FC
13 1 POSRES_FC POSRES_FC POSRES_FC
15 1 POSRES_FC POSRES_FC POSRES_FC
17 1 POSRES_FC POSRES_FC POSRES_FC
20 1 POSRES_FC POSRES_FC POSRES_FC
22 1 POSRES_FC POSRES_FC POSRES_FC
24 1 POSRES_FC POSRES_FC POSRES_FC
27 1 POSRES_FC POSRES_FC POSRES_FC
28 1 POSRES_FC POSRES_FC POSRES_FC
31 1 POSRES_FC POSRES_FC POSRES_FC
32 1 POSRES_FC POSRES_FC POSRES_FC
35 1 POSRES_FC POSRES_FC POSRES_FC
38 1 POSRES_FC POSRES_FC POSRES_FC
41 1 POSRES_FC POSRES_FC POSRES_FC
46 1 POSRES_FC POSRES_FC POSRES_FC
47 1 POSRES_FC POSRES_FC POSRES_FC
50 1 POSRES_FC POSRES_FC POSRES_FC
52 1 POSRES_FC POSRES_FC POSRES_FC
54 1 POSRES_FC POSRES_FC POSRES_FC
56 1 POSRES_FC POSRES_FC POSRES_FC
58 1 POSRES_FC POSRES_FC POSRES_FC
#endif

[ bonds ]
; Backbone bonds
56 58 1 0.350 4000

; Side chain bonds
 3  4 1 0.315 5000
 9 10 1 0.400 5000
17 18 1 0.330 5000
18 19 1 0.380 5000
20 21 1 0.363 7500
24 25 1 0.330 5000
25 26 1 0.360 5000
28 29 1 0.330 5000
29 30 1 0.380 5000
32 33 1 0.330 5000
33 34 1 0.380 5000
35 36 1 0.330 5000
36 37 1 0.360 5000
38 39 1 0.330 5000
39 40 1 0.360 5000
41 42 1 0.325 5000
47 48 1 0.330 5000
48 49 1 0.380 5000

#ifdef FLEXIBLE
; Side chain bonds
 1  2 1 0.270 1000000
 4  5 1 0.335 1000000
 4  7 1 0.404 1000000
 5  7 1 0.470 1000000
 5  8 1 0.412 1000000
 7  8 1 0.293 1000000
11 12 1 0.270 1000000
13 14 1 0.341 1000000
15 16 1 0.270 1000000
22 23 1 0.341 1000000
42 43 1 0.300 1000000
42 44 1 0.300 1000000
43 44 1 0.300 1000000
43 45 1 0.285 1000000
44 45 1 0.285 1000000
50 51 1 0.341 1000000
52 53 1 0.341 1000000
54 55 1 0.341 1000000
56 57 1 0.341 1000000
#endif

[ constraints ]
; Backbone bonds
 1  3 1 0.33
 3  9 1 0.310
 9 11 1 0.310
11 13 1 0.310
13 15 1 0.310
15 17 1 0.310
17 20 1 0.310
20 22 1 0.310
22 24 1 0.310
24 27 1 0.310
27 28 1 0.310
28 31 1 0.310
31 32 1 0.310
32 35 1 0.310
35 38 1 0.310
38 41 1 0.310
41 46 1 0.310
46 47 1 0.310
47 50 1 0.310
50 52 1 0.310
52 54 1 0.310
54 56 1 0.33

#ifndef FLEXIBLE
; Side chain bonds
 1  2 1 0.270
 4  5 1 0.335
 4  7 1 0.404
 5  7 1 0.470
 5  8 1 0.412
 7  8 1 0.293
11 12 1 0.270
13 14 1 0.341
15 16 1 0.270
22 23 1 0.341
42 43 1 0.300
42 44 1 0.300
43 44 1 0.300
43 45 1 0.285
44 45 1 0.285
50 51 1 0.341
52 53 1 0.341
54 55 1 0.341
56 57 1 0.341
#endif

[ angles ]
; BBB angles
 1  3  9 10 127 20
 3  9 11 2 96 700
 9 11 13 2 96 700
11 13 15 2 96 700
13 15 17 2 96 700
15 17 20 2 96 700
17 20 22 2 96 700
20 22 24 2 96 700
22 24 27 2 96 700
24 27 28 2 96 700
27 28 31 2 96 700
28 31 32 2 96 700
31 32 35 2 96 700
32 35 38 2 96 700
35 38 41 2 96 700
38 41 46 2 96 700
41 46 47 2 96 700
46 47 50 2 96 700
47 50 52 2 96 700
50 52 54 2 96 700
52 54 56 10 100 20
54 56 58 10 100 20

; BBS angles regular martini
 1  3  4 2 100 25
 3  9 10 2 100 25
 9 11 12 2 100 25
11 13 14 2 100 25
13 15 16 2 100 25
15 17 18 2 100 25
17 20 21 2 100 25
20 22 23 2 100 25
22 24 25 2 100 25
27 28 29 2 100 25
31 32 33 2 100 25
32 35 36 2 100 25
35 38 39 2 100 25
38 41 42 2 100 25
46 47 48 2 100 25
47 50 51 2 100 25
50 52 53 2 100 25
52 54 55 2 100 25
54 56 57 2 100 25

; First SBB regular martini
 2  1  3 2 100 25

; SC-BB-BB and BB-BB-SC scFix
 2  1  3 10 100 15 ; SC-BB-BB
 1  3  4 10 100 15 ; BB-BB-SC
 4  3  9 10 100 15 ; SC-BB-BB
 3  9 10 10 100 15 ; BB-BB-SC
10  9 11 10 100 15 ; SC-BB-BB
 9 11 12 10 100 15 ; BB-BB-SC
12 11 13 10 100 15 ; SC-BB-BB
11 13 14 10 100 15 ; BB-BB-SC
14 13 15 10 100 15 ; SC-BB-BB
13 15 16 10 100 15 ; BB-BB-SC
16 15 17 10 100 15 ; SC-BB-BB
15 17 18 10 100 15 ; BB-BB-SC
18 17 20 10 100 15 ; SC-BB-BB
17 20 21 10 100 15 ; BB-BB-SC
21 20 22 10 100 15 ; SC-BB-BB
20 22 23 10 100 15 ; BB-BB-SC
23 22 24 10 100 15 ; SC-BB-BB
22 24 25 10 100 15 ; BB-BB-SC
25 24 27 10 100 15 ; SC-BB-BB
27 28 29 10 100 15 ; BB-BB-SC
29 28 31 10 100 15 ; SC-BB-BB
31 32 33 10 100 15 ; BB-BB-SC
33 32 35 10 100 15 ; SC-BB-BB
32 35 36 10 100 15 ; BB-BB-SC
36 35 38 10 100 15 ; SC-BB-BB
35 38 39 10 100 15 ; BB-BB-SC
39 38 41 10 100 15 ; SC-BB-BB
38 41 42 10 100 15 ; BB-BB-SC
42 41 46 10 100 15 ; SC-BB-BB
46 47 48 10 100 15 ; BB-BB-SC
48 47 50 10 100 15 ; SC-BB-BB
47 50 51 10 100 15 ; BB-BB-SC
51 50 52 10 100 15 ; SC-BB-BB
50 52 53 10 100 15 ; BB-BB-SC
53 52 54 10 100 15 ; SC-BB-BB
52 54 55 10 100 15 ; BB-BB-SC
55 54 56 10 100 15 ; SC-BB-BB
54 56 57 10 100 15 ; BB-BB-SC
57 56 58 10 100 15 ; SC-BB-BB

; Side chain angles
 3  4  5 2 120.000 60.0
 3  4  7 2 130.000 60.0
17 18 19 2 180.000 25.0
24 25 26 2 180.000 25.0
28 29 30 2 180.000 25.0
32 33 34 2 180.000 25.0
35 36 37 2 180.000 25.0
38 39 40 2 180.000 25.0
41 42 43 2 120.000 60.0
41 42 44 2 120.000 60.0
47 48 49 2 180.000 25.0

[ dihedrals ]
 3  9 11 13 1 -120 400 1
 9 11 13 15 1 -120 400 1
11 13 15 17 1 -120 400 1
13 15 17 20 1 -120 400 1
15 17 20 22 1 -120 400 1
17 20 22 24 1 -120 400 1
20 22 24 27 1 -120 400 1
22 24 27 28 1 -120 400 1
24 27 28 31 1 -120 400 1
27 28 31 32 1 -120 400 1
28 31 32 35 1 -120 400 1
31 32 35 38 1 -120 400 1
32 35 38 41 1 -120 400 1
35 38 41 46 1 -120 400 1
38 41 46 47 1 -120 400 1
41 46 47 50 1 -120 400 1
46 47 50 52 1 -120 400 1
47 50 52 54 1 -120 400 1

; SC-BB-BB-SC scFix
 2  1  3  4 1 -127.7 75 1 ; SC-BB-BB-SC
 4  3  9 10 1 -125.5 75 1 ; SC-BB-BB-SC
10  9 11 12 1 -152.7 75 1 ; SC-BB-BB-SC
12 11 13 14 1 -152.1 75 1 ; SC-BB-BB-SC
14 13 15 16 1 -141.0 75 1 ; SC-BB-BB-SC
16 15 17 18 1 -159.7 75 1 ; SC-BB-BB-SC
18 17 20 21 1 -131.6 75 1 ; SC-BB-BB-SC
21 20 22 23 1 -127.4 75 1 ; SC-BB-BB-SC
23 22 24 25 1 -156.1 75 1 ; SC-BB-BB-SC
24 27 28 29 1 79.5 75 1 ; BB-BB-BB-SC
25 24 27 28 1 18.5 75 1 ; SC-BB-BB-BB
28 31 32 33 1 87.3 75 1 ; BB-BB-BB-SC
29 28 31 32 1 -3.0 75 1 ; SC-BB-BB-BB
33 32 35 36 1 -138.7 75 1 ; SC-BB-BB-SC
36 35 38 39 1 -135.3 75 1 ; SC-BB-BB-SC
39 38 41 42 1 -160.3 75 1 ; SC-BB-BB-SC
41 46 47 48 1 83.0 75 1 ; BB-BB-BB-SC
42 41 46 47 1 -5.9 75 1 ; SC-BB-BB-BB
48 47 50 51 1 -136.1 75 1 ; SC-BB-BB-SC
51 50 52 53 1 -164.3 75 1 ; SC-BB-BB-SC
53 52 54 55 1 -138.9 75 1 ; SC-BB-BB-SC
55 54 56 57 1 -158.9 75 1 ; SC-BB-BB-SC

[ dihedrals ]
 8  7  5  4 2 180.0 100.0
45 43 44 42 2 180.0 50.0

[ virtual_sitesn ]
 6 2  8  7  5  4

[ exclusions ]
 3  4  5  6  7  8 
 4  5  6  7  8 
 5  6  7  8 
 6  7  8 
 7  8 
41 42 43 44 45 
42 43 44 45 
43 44 45 
44 45 

