; This file was generated using the following command:
; /opt/conda/bin/martinize2 -f /work/simulations/solvia_313_run_1/colabfold/best_model.pdb -ff martini3001 -x /work/simulations/solvia_313_run_1/coarse_grain/SOLVIA_313_cg.pdb -o /work/simulations/solvia_313_run_1/coarse_grain/SOLVIA_313.itp -name SOLVIA_313 -cter NH2-ter -maxwarn 1 -cys auto -dssp -p backbone -pf 1000
; martinize with vermouth 0.15.0
; The following sequence of secondary structure 
; was used for the full system:
; CHHHHHHHHHHHHC

; Please cite the following papers:
; Souza, P C T; Alessandri, R; Barnoud, J; Thallmair, S; Faustino, I; Grünewald, F; Patmanidis, I; Abdizadeh, H; Bruininks, B M H; Wassenaar, T A; Kroon, P C; Melcr, J; Nieto, V; Corradi, V; Khan, H M; Domański, J; Javanainen, M; Martinez-Seara, H; Reuter, N; Best, R B; Vattulainen, I; Monticelli, L; Periole, X; Tieleman, D P; de Vries, A H; Marrink, S J;  Nature Methods 2021; 10.1038/s41592-021-01098-3
; Kroon, P C; Grunewald, F; Barnoud, J; van Tilburg, M; Souza, P C; Wassenaar, T A; Marrink, S J;  elife 2024; 10.7554/elife.90627.2
; McGibbon, R T; Beauchamp, K A; Harrigan, M P; Klein, C; Swails, J M; Hernández, C X; Schwantes, C R; Wang, L; Lane, T J; Pande, V S;  Biophysical Journal 2015; 10.1016/j.bpj.2015.08.015

#ifndef POSRES_FC
#define POSRES_FC 1000.0
#endif

[ moleculetype ]
SOLVIA_313 1

[ atoms ]
 1 Q5    1 ILE BB   1   1     
 2 SC2   1 ILE SC1  2 0.0     
 3 P2    2 ASN BB   3 0.0     
 4 SP5   2 ASN SC1  4 0.0     
 5 P2    3 TRP BB   5 0.0     
 6 TC4   3 TRP SC1  6 0.0 36.0
 7 TN6d  3 TRP SC2  7 0.0 36.0
 8 TC5   3 TRP SC3  8 0.0  0.0
 9 TC5   3 TRP SC4  9 0.0 36.0
10 TC5   3 TRP SC5 10 0.0 36.0
11 P2    4 LEU BB  11 0.0     
12 SC2   4 LEU SC1 12 0.0     
13 P2    5 LYS BB  13 0.0     
14 SC3   5 LYS SC1 14 0.0     
15 SQ4p  5 LYS SC2 15 1.0     
16 P2    6 LEU BB  16 0.0     
17 SC2   6 LEU SC1 17 0.0     
18 SP1   7 GLY BB  18 0.0     
19 P2    8 LYS BB  19 0.0     
20 SC3   8 LYS SC1 20 0.0     
21 SQ4p  8 LYS SC2 21 1.0     
22 P2    9 LYS BB  22 0.0     
23 SC3   9 LYS SC1 23 0.0     
24 SQ4p  9 LYS SC2 24 1.0     
25 P2   10 LEU BB  25 0.0     
26 SC2  10 LEU SC1 26 0.0     
27 P2   11 LEU BB  27 0.0     
28 SC2  11 LEU SC1 28 0.0     
29 P2   12 SER BB  29 0.0     
30 TP1  12 SER SC1 30 0.0     
31 SP2  13 ALA BB  31 0.0     
32 TC3  13 ALA SC1 32 0.0     
33 P6   14 LEU BB  33   0     
34 SC2  14 LEU SC1 34 0.0     

[ position_restraints ]
#ifdef POSRES
 1 1 POSRES_FC POSRES_FC POSRES_FC
 3 1 POSRES_FC POSRES_FC POSRES_FC
 5 1 POSRES_FC POSRES_FC POSRES_FC
11 1 POSRES_FC POSRES_FC POSRES_FC
13 1 POSRES_FC POSRES_FC POSRES_FC
16 1 POSRES_FC POSRES_FC POSRES_FC
18 1 POSRES_FC POSRES_FC POSRES_FC
19 1 POSRES_FC POSRES_FC POSRES_FC
22 1 POSRES_FC POSRES_FC POSRES_FC
25 1 POSRES_FC POSRES_FC POSRES_FC
27 1 POSRES_FC POSRES_FC POSRES_FC
29 1 POSRES_FC POSRES_FC POSRES_FC
31 1 POSRES_FC POSRES_FC POSRES_FC
33 1 POSRES_FC POSRES_FC POSRES_FC
#endif

[ bonds ]
; Side chain bonds
 3  4 1 0.352 5000
 5  6 1 0.315 5000
11 12 1 0.363 7500
13 14 1 0.330 5000
14 15 1 0.360 5000
16 17 1 0.363 7500
19 20 1 0.330 5000
20 21 1 0.360 5000
22 23 1 0.330 5000
23 24 1 0.360 5000
25 26 1 0.363 7500
27 28 1 0.363 7500
29 30 1 0.287 7500
33 34 1 0.363 7500

#ifdef FLEXIBLE
; Side chain bonds
 1  2 1 0.341 1000000
 6  7 1 0.335 1000000
 6  9 1 0.404 1000000
 7  9 1 0.470 1000000
 7 10 1 0.412 1000000
 9 10 1 0.293 1000000
31 32 1 0.270 1000000
#endif

[ constraints ]
; Backbone bonds
 1  3 1 0.33
 3  5 1 0.310
 5 11 1 0.310
11 13 1 0.310
13 16 1 0.310
16 18 1 0.310
18 19 1 0.310
19 22 1 0.310
22 25 1 0.310
25 27 1 0.310
27 29 1 0.310
29 31 1 0.310
31 33 1 0.33

#ifndef FLEXIBLE
; Side chain bonds
 1  2 1 0.341
 6  7 1 0.335
 6  9 1 0.404
 7  9 1 0.470
 7 10 1 0.412
 9 10 1 0.293
31 32 1 0.270
#endif

[ angles ]
; BBB angles
 1  3  5 10 127 20
 3  5 11 2 96 700
 5 11 13 2 96 700
11 13 16 2 96 700
13 16 18 2 96 700
16 18 19 2 96 700
18 19 22 2 96 700
19 22 25 2 96 700
22 25 27 2 96 700
25 27 29 2 96 700
27 29 31 2 96 700
29 31 33 10 127 20

; BBS angles regular martini
 1  3  4 2 100 25
 3  5  6 2 100 25
 5 11 12 2 100 25
11 13 14 2 100 25
13 16 17 2 100 25
18 19 20 2 100 25
19 22 23 2 100 25
22 25 26 2 100 25
25 27 28 2 100 25
27 29 30 2 100 25
29 31 32 2 100 25
31 33 34 2 100 25

; First SBB regular martini
 2  1  3 2 100 25

; SC-BB-BB and BB-BB-SC scFix
 2  1  3 10 100 15 ; SC-BB-BB
 1  3  4 10 100 15 ; BB-BB-SC
 4  3  5 10 100 15 ; SC-BB-BB
 3  5  6 10 100 15 ; BB-BB-SC
 6  5 11 10 100 15 ; SC-BB-BB
 5 11 12 10 100 15 ; BB-BB-SC
12 11 13 10 100 15 ; SC-BB-BB
11 13 14 10 100 15 ; BB-BB-SC
14 13 16 10 100 15 ; SC-BB-BB
13 16 17 10 100 15 ; BB-BB-SC
17 16 18 10 100 15 ; SC-BB-BB
18 19 20 10 100 15 ; BB-BB-SC
20 19 22 10 100 15 ; SC-BB-BB
19 22 23 10 100 15 ; BB-BB-SC
23 22 25 10 100 15 ; SC-BB-BB
22 25 26 10 100 15 ; BB-BB-SC
26 25 27 10 100 15 ; SC-BB-BB
25 27 28 10 100 15 ; BB-BB-SC
28 27 29 10 100 15 ; SC-BB-BB
27 29 30 10 100 15 ; BB-BB-SC
30 29 31 10 100 15 ; SC-BB-BB
29 31 32 10 100 15 ; BB-BB-SC
32 31 33 10 100 15 ; SC-BB-BB
31 33 34 10 100 15 ; BB-BB-SC

; Side chain angles
 5  6  7 2 120.000 60.0
 5  6  9 2 130.000 60.0
13 14 15 2 180.000 25.0
19 20 21 2 180.000 25.0
22 23 24 2 180.000 25.0

[ dihedrals ]
 3  5 11 13 1 -120 400 1
 5 11 13 16 1 -120 400 1
11 13 16 18 1 -120 400 1
13 16 18 19 1 -120 400 1
16 18 19 22 1 -120 400 1
18 19 22 25 1 -120 400 1
19 22 25 27 1 -120 400 1
22 25 27 29 1 -120 400 1
25 27 29 31 1 -120 400 1

; SC-BB-BB-SC scFix
 2  1  3  4 1 -156.6 75 1 ; SC-BB-BB-SC
 4  3  5  6 1 -100.5 75 1 ; SC-BB-BB-SC
 6  5 11 12 1 -132.3 75 1 ; SC-BB-BB-SC
12 11 13 14 1 -126.8 75 1 ; SC-BB-BB-SC
14 13 16 17 1 -133.4 75 1 ; SC-BB-BB-SC
16 18 19 20 1 84.0 75 1 ; BB-BB-BB-SC
17 16 18 19 1 33.1 75 1 ; SC-BB-BB-BB
20 19 22 23 1 -128.2 75 1 ; SC-BB-BB-SC
23 22 25 26 1 -133.9 75 1 ; SC-BB-BB-SC
26 25 27 28 1 -149.6 75 1 ; SC-BB-BB-SC
28 27 29 30 1 -153.7 75 1 ; SC-BB-BB-SC
30 29 31 32 1 -132.9 75 1 ; SC-BB-BB-SC
32 31 33 34 1 -158.6 75 1 ; SC-BB-BB-SC

[ dihedrals ]
10  9  7  6 2 180.0 100.0

[ virtual_sitesn ]
 8 2 10  9  7  6

[ exclusions ]
 5  6  7  8  9 10 
 6  7  8  9 10 
 7  8  9 10 
 8  9 10 
 9 10 

