; This file was generated using the following command:
; /opt/conda/bin/martinize2 -f /work/simulations/solvia_515_run_1/colabfold/best_model.pdb -ff martini3001 -x /work/simulations/solvia_515_run_1/coarse_grain/SOLVIA_515_cg.pdb -o /work/simulations/solvia_515_run_1/coarse_grain/SOLVIA_515.itp -name SOLVIA_515 -cter NH2-ter -maxwarn 1 -cys auto -dssp -p backbone -pf 1000
; martinize with vermouth 0.14.0
; The following sequence of secondary structure 
; was used for the full system:
; CHHHHHHHHHHHHHHHHTCC

; Please cite the following papers:
; Kroon, P C; Grunewald, F; Barnoud, J; van Tilburg, M; Souza, P C; Wassenaar, T A; Marrink, S J;  elife 2024; 10.7554/elife.90627.2
; Souza, P C T; Alessandri, R; Barnoud, J; Thallmair, S; Faustino, I; Grünewald, F; Patmanidis, I; Abdizadeh, H; Bruininks, B M H; Wassenaar, T A; Kroon, P C; Melcr, J; Nieto, V; Corradi, V; Khan, H M; Domański, J; Javanainen, M; Martinez-Seara, H; Reuter, N; Best, R B; Vattulainen, I; Monticelli, L; Periole, X; Tieleman, D P; de Vries, A H; Marrink, S J;  Nature Methods 2021; 10.1038/s41592-021-01098-3
; McGibbon, R T; Beauchamp, K A; Harrigan, M P; Klein, C; Swails, J M; Hernández, C X; Schwantes, C R; Wang, L; Lane, T J; Pande, V S;  Biophysical Journal 2015; 10.1016/j.bpj.2015.08.015

#ifndef POSRES_FC
#define POSRES_FC 1000.0
#endif

[ moleculetype ]
SOLVIA_515 1

[ atoms ]
 1 Q5    1 PHE BB   1   1 
 2 SC4   1 PHE SC1  2 0.0 
 3 TC5   1 PHE SC2  3 0.0 
 4 TC5   1 PHE SC3  4 0.0 
 5 P2    2 PHE BB   5 0.0 
 6 SC4   2 PHE SC1  6 0.0 
 7 TC5   2 PHE SC2  7 0.0 
 8 TC5   2 PHE SC3  8 0.0 
 9 SP2a  3 PRO BB   9 0.0 
10 SC3   3 PRO SC1 10 0.0 
11 P2    4 ILE BB  11 0.0 
12 SC2   4 ILE SC1 12 0.0 
13 P2    5 ILE BB  13 0.0 
14 SC2   5 ILE SC1 14 0.0 
15 SP2   6 ALA BB  15 0.0 
16 TC3   6 ALA SC1 16 0.0 
17 SP1   7 GLY BB  17 0.0 
18 P2    8 MET BB  18 0.0 
19 C6    8 MET SC1 19 0.0 
20 SP2   9 ALA BB  20 0.0 
21 TC3   9 ALA SC1 21 0.0 
22 SP2  10 ALA BB  22 0.0 
23 TC3  10 ALA SC1 23 0.0 
24 P2   11 LYS BB  24 0.0 
25 SC3  11 LYS SC1 25 0.0 
26 SQ4p 11 LYS SC2 26 1.0 
27 SP2  12 VAL BB  27 0.0 
28 SC3  12 VAL SC1 28 0.0 
29 P2   13 ILE BB  29 0.0 
30 SC2  13 ILE SC1 30 0.0 
31 P2   14 CYS BB  31 0.0 
32 TC6  14 CYS SC1 32 0.0 
33 SP2  15 ALA BB  33 0.0 
34 TC3  15 ALA SC1 34 0.0 
35 P2   16 ILE BB  35 0.0 
36 SC2  16 ILE SC1 36 0.0 
37 P2   17 THR BB  37 0.0 
38 SP1  17 THR SC1 38 0.0 
39 P2   18 LYS BB  39 0.0 
40 SC3  18 LYS SC1 40 0.0 
41 SQ4p 18 LYS SC2 41 1.0 
42 P2   19 LYS BB  42 0.0 
43 SC3  19 LYS SC1 43 0.0 
44 SQ4p 19 LYS SC2 44 1.0 
45 P6   20 CYS BB  45   0 
46 TC6  20 CYS SC1 46 0.0 

[ position_restraints ]
#ifdef POSRES
 1 1 POSRES_FC POSRES_FC POSRES_FC
 5 1 POSRES_FC POSRES_FC POSRES_FC
 9 1 POSRES_FC POSRES_FC POSRES_FC
11 1 POSRES_FC POSRES_FC POSRES_FC
13 1 POSRES_FC POSRES_FC POSRES_FC
15 1 POSRES_FC POSRES_FC POSRES_FC
17 1 POSRES_FC POSRES_FC POSRES_FC
18 1 POSRES_FC POSRES_FC POSRES_FC
20 1 POSRES_FC POSRES_FC POSRES_FC
22 1 POSRES_FC POSRES_FC POSRES_FC
24 1 POSRES_FC POSRES_FC POSRES_FC
27 1 POSRES_FC POSRES_FC POSRES_FC
29 1 POSRES_FC POSRES_FC POSRES_FC
31 1 POSRES_FC POSRES_FC POSRES_FC
33 1 POSRES_FC POSRES_FC POSRES_FC
35 1 POSRES_FC POSRES_FC POSRES_FC
37 1 POSRES_FC POSRES_FC POSRES_FC
39 1 POSRES_FC POSRES_FC POSRES_FC
42 1 POSRES_FC POSRES_FC POSRES_FC
45 1 POSRES_FC POSRES_FC POSRES_FC
#endif

[ bonds ]
; Backbone bonds
39 42 1 0.350 4000
42 45 1 0.350 4000

; Side chain bonds
 1  2 1 0.325 7500
 5  6 1 0.325 7500
 9 10 1 0.330 7500
18 19 1 0.40 2500
24 25 1 0.330 5000
25 26 1 0.360 5000
31 32 1 0.341 7500
39 40 1 0.330 5000
40 41 1 0.360 5000
42 43 1 0.330 5000
43 44 1 0.360 5000
45 46 1 0.341 7500

#ifdef FLEXIBLE
; Side chain bonds
 2  3 1 0.340 1000000
 2  4 1 0.340 1000000
 3  4 1 0.290 1000000
 6  7 1 0.340 1000000
 6  8 1 0.340 1000000
 7  8 1 0.290 1000000
11 12 1 0.341 1000000
13 14 1 0.341 1000000
15 16 1 0.270 1000000
20 21 1 0.270 1000000
22 23 1 0.270 1000000
27 28 1 0.292 1000000
29 30 1 0.341 1000000
33 34 1 0.270 1000000
35 36 1 0.341 1000000
37 38 1 0.305 1000000
#endif

[ constraints ]
; Backbone bonds
 1  5 1 0.33
 5  9 1 0.310
 9 11 1 0.310
11 13 1 0.310
13 15 1 0.310
15 17 1 0.310
17 18 1 0.310
18 20 1 0.310
20 22 1 0.310
22 24 1 0.310
24 27 1 0.310
27 29 1 0.310
29 31 1 0.310
31 33 1 0.310
33 35 1 0.310
35 37 1 0.310
37 39 1 0.33

#ifndef FLEXIBLE
; Side chain bonds
 2  3 1 0.340
 2  4 1 0.340
 3  4 1 0.290
 6  7 1 0.340
 6  8 1 0.340
 7  8 1 0.290
11 12 1 0.341
13 14 1 0.341
15 16 1 0.270
20 21 1 0.270
22 23 1 0.270
27 28 1 0.292
29 30 1 0.341
33 34 1 0.270
35 36 1 0.341
37 38 1 0.305
#endif

[ angles ]
; BBB angles
 1  5  9 10 127 20
 5  9 11 10 98 100
 9 11 13 10 98 100
11 13 15 2 96 700
13 15 17 2 96 700
15 17 18 2 96 700
17 18 20 2 96 700
18 20 22 2 96 700
20 22 24 2 96 700
22 24 27 2 96 700
24 27 29 2 96 700
27 29 31 2 96 700
29 31 33 2 96 700
31 33 35 2 96 700
33 35 37 2 96 700
35 37 39 10 100 20
37 39 42 10 100 20
39 42 45 10 100 20

; BBS angles regular martini
 1  5  6 2 100 25
 5  9 10 2 100 25
 9 11 12 2 100 25
11 13 14 2 100 25
13 15 16 2 100 25
17 18 19 2 100 25
18 20 21 2 100 25
20 22 23 2 100 25
22 24 25 2 100 25
24 27 28 2 100 25
27 29 30 2 100 25
29 31 32 2 100 25
31 33 34 2 100 25
33 35 36 2 100 25
35 37 38 2 100 25
37 39 40 2 100 25
39 42 43 2 100 25
42 45 46 2 100 25

; First SBB regular martini
 2  1  5 2 100 25

; SC-BB-BB and BB-BB-SC scFix
 2  1  5 10 100 15 ; SC-BB-BB
 6  5  9 10 100 15 ; SC-BB-BB
10  9 11 10 100 15 ; SC-BB-BB
12 11 13 10 100 15 ; SC-BB-BB
14 13 15 10 100 15 ; SC-BB-BB
16 15 17 10 100 15 ; SC-BB-BB
19 18 20 10 100 15 ; SC-BB-BB
21 20 22 10 100 15 ; SC-BB-BB
23 22 24 10 100 15 ; SC-BB-BB
25 24 27 10 100 15 ; SC-BB-BB
28 27 29 10 100 15 ; SC-BB-BB
30 29 31 10 100 15 ; SC-BB-BB
32 31 33 10 100 15 ; SC-BB-BB
34 33 35 10 100 15 ; SC-BB-BB
36 35 37 10 100 15 ; SC-BB-BB
38 37 39 10 100 15 ; SC-BB-BB
40 39 42 10 100 15 ; SC-BB-BB
43 42 45 10 100 15 ; SC-BB-BB
 1  5  6 10 100 15 ; BB-BB-SC
 5  9 10 10 100 15 ; BB-BB-SC
 9 11 12 10 100 15 ; BB-BB-SC
11 13 14 10 100 15 ; BB-BB-SC
13 15 16 10 100 15 ; BB-BB-SC
17 18 19 10 100 15 ; BB-BB-SC
18 20 21 10 100 15 ; BB-BB-SC
20 22 23 10 100 15 ; BB-BB-SC
22 24 25 10 100 15 ; BB-BB-SC
24 27 28 10 100 15 ; BB-BB-SC
27 29 30 10 100 15 ; BB-BB-SC
29 31 32 10 100 15 ; BB-BB-SC
31 33 34 10 100 15 ; BB-BB-SC
33 35 36 10 100 15 ; BB-BB-SC
35 37 38 10 100 15 ; BB-BB-SC
37 39 40 10 100 15 ; BB-BB-SC
39 42 43 10 100 15 ; BB-BB-SC
42 45 46 10 100 15 ; BB-BB-SC

; Side chain angles
 1  2  3 2 120.000 50.0
 1  2  4 2 120.000 50.0
 5  6  7 2 120.000 50.0
 5  6  8 2 120.000 50.0
24 25 26 2 180.000 25.0
39 40 41 2 180.000 25.0
42 43 44 2 180.000 25.0

[ dihedrals ]
 5  9 11 13 1 -120 400 1
 9 11 13 15 1 -120 400 1
11 13 15 17 1 -120 400 1
13 15 17 18 1 -120 400 1
15 17 18 20 1 -120 400 1
17 18 20 22 1 -120 400 1
18 20 22 24 1 -120 400 1
20 22 24 27 1 -120 400 1
22 24 27 29 1 -120 400 1
24 27 29 31 1 -120 400 1
27 29 31 33 1 -120 400 1
29 31 33 35 1 -120 400 1
31 33 35 37 1 -120 400 1

; SC-BB-BB-SC scFix
 2  1  5  6 1 -137.6 75 1 ; SC-BB-BB-SC
 6  5  9 10 1 -98.8 75 1 ; SC-BB-BB-SC
10  9 11 12 1 165.0 75 1 ; SC-BB-BB-SC
12 11 13 14 1 -137.1 75 1 ; SC-BB-BB-SC
14 13 15 16 1 -134.5 75 1 ; SC-BB-BB-SC
19 18 20 21 1 -112.2 75 1 ; SC-BB-BB-SC
21 20 22 23 1 -134.1 75 1 ; SC-BB-BB-SC
23 22 24 25 1 -154.3 75 1 ; SC-BB-BB-SC
25 24 27 28 1 -145.4 75 1 ; SC-BB-BB-SC
28 27 29 30 1 -140.0 75 1 ; SC-BB-BB-SC
30 29 31 32 1 -138.6 75 1 ; SC-BB-BB-SC
32 31 33 34 1 -114.9 75 1 ; SC-BB-BB-SC
34 33 35 36 1 -157.4 75 1 ; SC-BB-BB-SC
36 35 37 38 1 -155.1 75 1 ; SC-BB-BB-SC
38 37 39 40 1 -4.7 75 1 ; SC-BB-BB-SC
40 39 42 43 1 -56.9 75 1 ; SC-BB-BB-SC
43 42 45 46 1 -34.9 75 1 ; SC-BB-BB-SC
15 17 18 19 1 74.0 75 1 ; BB-BB-BB-SC
16 15 17 18 1 -3.4 75 1 ; SC-BB-BB-BB

[ exclusions ]
 1  2  3  4 
 2  3  4 
 3  4 
 5  6  7  8 
 6  7  8 
 7  8 

