; This file was generated using the following command:
; /opt/conda/bin/martinize2 -f /work/simulations/solvia_1115_run_1/colabfold/best_model.pdb -ff martini3001 -x /work/simulations/solvia_1115_run_1/coarse_grain/SOLVIA_1115_cg.pdb -o /work/simulations/solvia_1115_run_1/coarse_grain/SOLVIA_1115.itp -name SOLVIA_1115 -cter NH2-ter -maxwarn 1 -cys auto -dssp -p backbone -pf 1000
; martinize with vermouth 0.15.0
; The following sequence of secondary structure 
; was used for the full system:
; CCHHHHHHHHHHC

; Please cite the following papers:
; McGibbon, R T; Beauchamp, K A; Harrigan, M P; Klein, C; Swails, J M; Hernández, C X; Schwantes, C R; Wang, L; Lane, T J; Pande, V S;  Biophysical Journal 2015; 10.1016/j.bpj.2015.08.015
; Souza, P C T; Alessandri, R; Barnoud, J; Thallmair, S; Faustino, I; Grünewald, F; Patmanidis, I; Abdizadeh, H; Bruininks, B M H; Wassenaar, T A; Kroon, P C; Melcr, J; Nieto, V; Corradi, V; Khan, H M; Domański, J; Javanainen, M; Martinez-Seara, H; Reuter, N; Best, R B; Vattulainen, I; Monticelli, L; Periole, X; Tieleman, D P; de Vries, A H; Marrink, S J;  Nature Methods 2021; 10.1038/s41592-021-01098-3
; Kroon, P C; Grunewald, F; Barnoud, J; van Tilburg, M; Souza, P C; Wassenaar, T A; Marrink, S J;  elife 2024; 10.7554/elife.90627.2

#ifndef POSRES_FC
#define POSRES_FC 1000.0
#endif

[ moleculetype ]
SOLVIA_1115 1

[ atoms ]
 1 Q5    1 ILE BB   1   1 
 2 SC2   1 ILE SC1  2 0.0 
 3 P2    2 ASN BB   3 0.0 
 4 SP5   2 ASN SC1  4 0.0 
 5 P2    3 LEU BB   5 0.0 
 6 SC2   3 LEU SC1  6 0.0 
 7 P2    4 LYS BB   7 0.0 
 8 SC3   4 LYS SC1  8 0.0 
 9 SQ4p  4 LYS SC2  9 1.0 
10 SP2   5 ALA BB  10 0.0 
11 TC3   5 ALA SC1 11 0.0 
12 P2    6 ILE BB  12 0.0 
13 SC2   6 ILE SC1 13 0.0 
14 SP2   7 ALA BB  14 0.0 
15 TC3   7 ALA SC1 15 0.0 
16 SP2   8 ALA BB  16 0.0 
17 TC3   8 ALA SC1 17 0.0 
18 P2    9 LEU BB  18 0.0 
19 SC2   9 LEU SC1 19 0.0 
20 SP2  10 VAL BB  20 0.0 
21 SC3  10 VAL SC1 21 0.0 
22 P2   11 LYS BB  22 0.0 
23 SC3  11 LYS SC1 23 0.0 
24 SQ4p 11 LYS SC2 24 1.0 
25 P2   12 LYS BB  25 0.0 
26 SC3  12 LYS SC1 26 0.0 
27 SQ4p 12 LYS SC2 27 1.0 
28 P6   13 VAL BB  28   0 
29 SC3  13 VAL SC1 29 0.0 

[ position_restraints ]
#ifdef POSRES
 1 1 POSRES_FC POSRES_FC POSRES_FC
 3 1 POSRES_FC POSRES_FC POSRES_FC
 5 1 POSRES_FC POSRES_FC POSRES_FC
 7 1 POSRES_FC POSRES_FC POSRES_FC
10 1 POSRES_FC POSRES_FC POSRES_FC
12 1 POSRES_FC POSRES_FC POSRES_FC
14 1 POSRES_FC POSRES_FC POSRES_FC
16 1 POSRES_FC POSRES_FC POSRES_FC
18 1 POSRES_FC POSRES_FC POSRES_FC
20 1 POSRES_FC POSRES_FC POSRES_FC
22 1 POSRES_FC POSRES_FC POSRES_FC
25 1 POSRES_FC POSRES_FC POSRES_FC
28 1 POSRES_FC POSRES_FC POSRES_FC
#endif

[ bonds ]
; Backbone bonds
 1  3 1 0.350 4000

; Side chain bonds
 3  4 1 0.352 5000
 5  6 1 0.363 7500
 7  8 1 0.330 5000
 8  9 1 0.360 5000
18 19 1 0.363 7500
22 23 1 0.330 5000
23 24 1 0.360 5000
25 26 1 0.330 5000
26 27 1 0.360 5000

#ifdef FLEXIBLE
; Side chain bonds
 1  2 1 0.341 1000000
10 11 1 0.270 1000000
12 13 1 0.341 1000000
14 15 1 0.270 1000000
16 17 1 0.270 1000000
20 21 1 0.292 1000000
28 29 1 0.292 1000000
#endif

[ constraints ]
; Backbone bonds
 3  5 1 0.33
 5  7 1 0.310
 7 10 1 0.310
10 12 1 0.310
12 14 1 0.310
14 16 1 0.310
16 18 1 0.310
18 20 1 0.310
20 22 1 0.310
22 25 1 0.310
25 28 1 0.33

#ifndef FLEXIBLE
; Side chain bonds
 1  2 1 0.341
10 11 1 0.270
12 13 1 0.341
14 15 1 0.270
16 17 1 0.270
20 21 1 0.292
28 29 1 0.292
#endif

[ angles ]
; BBB angles
 1  3  5 10 127 20
 3  5  7 10 127 20
 5  7 10 2 96 700
 7 10 12 2 96 700
10 12 14 2 96 700
12 14 16 2 96 700
14 16 18 2 96 700
16 18 20 2 96 700
18 20 22 2 96 700
20 22 25 2 96 700
22 25 28 10 127 20

; BBS angles regular martini
 1  3  4 2 100 25
 3  5  6 2 100 25
 5  7  8 2 100 25
 7 10 11 2 100 25
10 12 13 2 100 25
12 14 15 2 100 25
14 16 17 2 100 25
16 18 19 2 100 25
18 20 21 2 100 25
20 22 23 2 100 25
22 25 26 2 100 25
25 28 29 2 100 25

; First SBB regular martini
 2  1  3 2 100 25

; SC-BB-BB and BB-BB-SC scFix
 2  1  3 10 100 15 ; SC-BB-BB
 1  3  4 10 100 15 ; BB-BB-SC
 4  3  5 10 100 15 ; SC-BB-BB
 3  5  6 10 100 15 ; BB-BB-SC
 6  5  7 10 100 15 ; SC-BB-BB
 5  7  8 10 100 15 ; BB-BB-SC
 8  7 10 10 100 15 ; SC-BB-BB
 7 10 11 10 100 15 ; BB-BB-SC
11 10 12 10 100 15 ; SC-BB-BB
10 12 13 10 100 15 ; BB-BB-SC
13 12 14 10 100 15 ; SC-BB-BB
12 14 15 10 100 15 ; BB-BB-SC
15 14 16 10 100 15 ; SC-BB-BB
14 16 17 10 100 15 ; BB-BB-SC
17 16 18 10 100 15 ; SC-BB-BB
16 18 19 10 100 15 ; BB-BB-SC
19 18 20 10 100 15 ; SC-BB-BB
18 20 21 10 100 15 ; BB-BB-SC
21 20 22 10 100 15 ; SC-BB-BB
20 22 23 10 100 15 ; BB-BB-SC
23 22 25 10 100 15 ; SC-BB-BB
22 25 26 10 100 15 ; BB-BB-SC
26 25 28 10 100 15 ; SC-BB-BB
25 28 29 10 100 15 ; BB-BB-SC

; Side chain angles
 7  8  9 2 180.000 25.0
22 23 24 2 180.000 25.0
25 26 27 2 180.000 25.0

[ dihedrals ]
 5  7 10 12 1 -120 400 1
 7 10 12 14 1 -120 400 1
10 12 14 16 1 -120 400 1
12 14 16 18 1 -120 400 1
14 16 18 20 1 -120 400 1
16 18 20 22 1 -120 400 1
18 20 22 25 1 -120 400 1

; SC-BB-BB-SC scFix
 2  1  3  4 1 17.1 75 1 ; SC-BB-BB-SC
 4  3  5  6 1 61.0 75 1 ; SC-BB-BB-SC
 6  5  7  8 1 -130.1 75 1 ; SC-BB-BB-SC
 8  7 10 11 1 -144.0 75 1 ; SC-BB-BB-SC
11 10 12 13 1 -148.3 75 1 ; SC-BB-BB-SC
13 12 14 15 1 -132.6 75 1 ; SC-BB-BB-SC
15 14 16 17 1 -143.2 75 1 ; SC-BB-BB-SC
17 16 18 19 1 -155.2 75 1 ; SC-BB-BB-SC
19 18 20 21 1 -122.3 75 1 ; SC-BB-BB-SC
21 20 22 23 1 -135.8 75 1 ; SC-BB-BB-SC
23 22 25 26 1 -126.8 75 1 ; SC-BB-BB-SC
26 25 28 29 1 -123.5 75 1 ; SC-BB-BB-SC

