; This file was generated using the following command:
; /opt/conda/bin/martinize2 -f /work/simulations/solvia_253_run_1/colabfold/best_model.pdb -ff martini3001 -x /work/simulations/solvia_253_run_1/coarse_grain/SOLVIA_253_cg.pdb -o /work/simulations/solvia_253_run_1/coarse_grain/SOLVIA_253.itp -name SOLVIA_253 -cter NH2-ter -maxwarn 1 -cys auto -dssp -p backbone -pf 1000
; martinize with vermouth 0.15.0
; The following sequence of secondary structure 
; was used for the full system:
; CHHHHHHHHHHHHHHHHHHC

; Please cite the following papers:
; Kroon, P C; Grunewald, F; Barnoud, J; van Tilburg, M; Souza, P C; Wassenaar, T A; Marrink, S J;  elife 2024; 10.7554/elife.90627.2
; McGibbon, R T; Beauchamp, K A; Harrigan, M P; Klein, C; Swails, J M; Hernández, C X; Schwantes, C R; Wang, L; Lane, T J; Pande, V S;  Biophysical Journal 2015; 10.1016/j.bpj.2015.08.015
; Souza, P C T; Alessandri, R; Barnoud, J; Thallmair, S; Faustino, I; Grünewald, F; Patmanidis, I; Abdizadeh, H; Bruininks, B M H; Wassenaar, T A; Kroon, P C; Melcr, J; Nieto, V; Corradi, V; Khan, H M; Domański, J; Javanainen, M; Martinez-Seara, H; Reuter, N; Best, R B; Vattulainen, I; Monticelli, L; Periole, X; Tieleman, D P; de Vries, A H; Marrink, S J;  Nature Methods 2021; 10.1038/s41592-021-01098-3

#ifndef POSRES_FC
#define POSRES_FC 1000.0
#endif

[ moleculetype ]
SOLVIA_253 1

[ atoms ]
 1 Q5    1 GLY BB   1   1     
 2 SP2   2 ALA BB   2 0.0     
 3 TC3   2 ALA SC1  3 0.0     
 4 P2    3 THR BB   4 0.0     
 5 SP1   3 THR SC1  5 0.0     
 6 P2    4 TYR BB   6 0.0     
 7 TC4   4 TYR SC1  7 0.0     
 8 TC5   4 TYR SC2  8 0.0     
 9 TC5   4 TYR SC3  9 0.0     
10 TN6   4 TYR SC4 10 0.0     
11 SP2   5 ALA BB  11 0.0     
12 TC3   5 ALA SC1 12 0.0     
13 P2    6 LYS BB  13 0.0     
14 SC3   6 LYS SC1 14 0.0     
15 SQ4p  6 LYS SC2 15 1.0     
16 P2    7 LYS BB  16 0.0     
17 SC3   7 LYS SC1 17 0.0     
18 SQ4p  7 LYS SC2 18 1.0     
19 P2    8 ILE BB  19 0.0     
20 SC2   8 ILE SC1 20 0.0     
21 P2    9 ILE BB  21 0.0     
22 SC2   9 ILE SC1 22 0.0     
23 P2   10 LYS BB  23 0.0     
24 SC3  10 LYS SC1 24 0.0     
25 SQ4p 10 LYS SC2 25 1.0     
26 P2   11 THR BB  26 0.0     
27 SP1  11 THR SC1 27 0.0     
28 P2   12 ILE BB  28 0.0     
29 SC2  12 ILE SC1 29 0.0     
30 P2   13 THR BB  30 0.0     
31 SP1  13 THR SC1 31 0.0     
32 P2   14 LYS BB  32 0.0     
33 SC3  14 LYS SC1 33 0.0     
34 SQ4p 14 LYS SC2 34 1.0     
35 P2   15 ILE BB  35 0.0     
36 SC2  15 ILE SC1 36 0.0     
37 SP2  16 ALA BB  37 0.0     
38 TC3  16 ALA SC1 38 0.0     
39 P2   17 THR BB  39 0.0     
40 SP1  17 THR SC1 40 0.0     
41 P2   18 THR BB  41 0.0     
42 SP1  18 THR SC1 42 0.0     
43 SP2  19 ALA BB  43 0.0     
44 TC3  19 ALA SC1 44 0.0     
45 P6   20 TRP BB  45   0     
46 TC4  20 TRP SC1 46 0.0 36.0
47 TN6d 20 TRP SC2 47 0.0 36.0
48 TC5  20 TRP SC3 48 0.0  0.0
49 TC5  20 TRP SC4 49 0.0 36.0
50 TC5  20 TRP SC5 50 0.0 36.0

[ position_restraints ]
#ifdef POSRES
 1 1 POSRES_FC POSRES_FC POSRES_FC
 2 1 POSRES_FC POSRES_FC POSRES_FC
 4 1 POSRES_FC POSRES_FC POSRES_FC
 6 1 POSRES_FC POSRES_FC POSRES_FC
11 1 POSRES_FC POSRES_FC POSRES_FC
13 1 POSRES_FC POSRES_FC POSRES_FC
16 1 POSRES_FC POSRES_FC POSRES_FC
19 1 POSRES_FC POSRES_FC POSRES_FC
21 1 POSRES_FC POSRES_FC POSRES_FC
23 1 POSRES_FC POSRES_FC POSRES_FC
26 1 POSRES_FC POSRES_FC POSRES_FC
28 1 POSRES_FC POSRES_FC POSRES_FC
30 1 POSRES_FC POSRES_FC POSRES_FC
32 1 POSRES_FC POSRES_FC POSRES_FC
35 1 POSRES_FC POSRES_FC POSRES_FC
37 1 POSRES_FC POSRES_FC POSRES_FC
39 1 POSRES_FC POSRES_FC POSRES_FC
41 1 POSRES_FC POSRES_FC POSRES_FC
43 1 POSRES_FC POSRES_FC POSRES_FC
45 1 POSRES_FC POSRES_FC POSRES_FC
#endif

[ bonds ]
; Side chain bonds
 6  7 1 0.325 5000
13 14 1 0.330 5000
14 15 1 0.360 5000
16 17 1 0.330 5000
17 18 1 0.360 5000
23 24 1 0.330 5000
24 25 1 0.360 5000
32 33 1 0.330 5000
33 34 1 0.360 5000
45 46 1 0.315 5000

#ifdef FLEXIBLE
; Side chain bonds
 2  3 1 0.270 1000000
 4  5 1 0.305 1000000
 7  8 1 0.300 1000000
 7  9 1 0.300 1000000
 8  9 1 0.300 1000000
 8 10 1 0.285 1000000
 9 10 1 0.285 1000000
11 12 1 0.270 1000000
19 20 1 0.341 1000000
21 22 1 0.341 1000000
26 27 1 0.305 1000000
28 29 1 0.341 1000000
30 31 1 0.305 1000000
35 36 1 0.341 1000000
37 38 1 0.270 1000000
39 40 1 0.305 1000000
41 42 1 0.305 1000000
43 44 1 0.270 1000000
46 47 1 0.335 1000000
46 49 1 0.404 1000000
47 49 1 0.470 1000000
47 50 1 0.412 1000000
49 50 1 0.293 1000000
#endif

[ constraints ]
; Backbone bonds
 1  2 1 0.33
 2  4 1 0.310
 4  6 1 0.310
 6 11 1 0.310
11 13 1 0.310
13 16 1 0.310
16 19 1 0.310
19 21 1 0.310
21 23 1 0.310
23 26 1 0.310
26 28 1 0.310
28 30 1 0.310
30 32 1 0.310
32 35 1 0.310
35 37 1 0.310
37 39 1 0.310
39 41 1 0.310
41 43 1 0.310
43 45 1 0.33

#ifndef FLEXIBLE
; Side chain bonds
 2  3 1 0.270
 4  5 1 0.305
 7  8 1 0.300
 7  9 1 0.300
 8  9 1 0.300
 8 10 1 0.285
 9 10 1 0.285
11 12 1 0.270
19 20 1 0.341
21 22 1 0.341
26 27 1 0.305
28 29 1 0.341
30 31 1 0.305
35 36 1 0.341
37 38 1 0.270
39 40 1 0.305
41 42 1 0.305
43 44 1 0.270
46 47 1 0.335
46 49 1 0.404
47 49 1 0.470
47 50 1 0.412
49 50 1 0.293
#endif

[ angles ]
; BBB angles
 1  2  4 10 127 20
 2  4  6 2 96 700
 4  6 11 2 96 700
 6 11 13 2 96 700
11 13 16 2 96 700
13 16 19 2 96 700
16 19 21 2 96 700
19 21 23 2 96 700
21 23 26 2 96 700
23 26 28 2 96 700
26 28 30 2 96 700
28 30 32 2 96 700
30 32 35 2 96 700
32 35 37 2 96 700
35 37 39 2 96 700
37 39 41 2 96 700
39 41 43 2 96 700
41 43 45 10 127 20

; BBS angles regular martini
 1  2  3 2 100 25
 2  4  5 2 100 25
 4  6  7 2 100 25
 6 11 12 2 100 25
11 13 14 2 100 25
13 16 17 2 100 25
16 19 20 2 100 25
19 21 22 2 100 25
21 23 24 2 100 25
23 26 27 2 100 25
26 28 29 2 100 25
28 30 31 2 100 25
30 32 33 2 100 25
32 35 36 2 100 25
35 37 38 2 100 25
37 39 40 2 100 25
39 41 42 2 100 25
41 43 44 2 100 25
43 45 46 2 100 25

; SC-BB-BB and BB-BB-SC scFix
 1  2  3 10 100 15 ; BB-BB-SC
 3  2  4 10 100 15 ; SC-BB-BB
 2  4  5 10 100 15 ; BB-BB-SC
 5  4  6 10 100 15 ; SC-BB-BB
 4  6  7 10 100 15 ; BB-BB-SC
 7  6 11 10 100 15 ; SC-BB-BB
 6 11 12 10 100 15 ; BB-BB-SC
12 11 13 10 100 15 ; SC-BB-BB
11 13 14 10 100 15 ; BB-BB-SC
14 13 16 10 100 15 ; SC-BB-BB
13 16 17 10 100 15 ; BB-BB-SC
17 16 19 10 100 15 ; SC-BB-BB
16 19 20 10 100 15 ; BB-BB-SC
20 19 21 10 100 15 ; SC-BB-BB
19 21 22 10 100 15 ; BB-BB-SC
22 21 23 10 100 15 ; SC-BB-BB
21 23 24 10 100 15 ; BB-BB-SC
24 23 26 10 100 15 ; SC-BB-BB
23 26 27 10 100 15 ; BB-BB-SC
27 26 28 10 100 15 ; SC-BB-BB
26 28 29 10 100 15 ; BB-BB-SC
29 28 30 10 100 15 ; SC-BB-BB
28 30 31 10 100 15 ; BB-BB-SC
31 30 32 10 100 15 ; SC-BB-BB
30 32 33 10 100 15 ; BB-BB-SC
33 32 35 10 100 15 ; SC-BB-BB
32 35 36 10 100 15 ; BB-BB-SC
36 35 37 10 100 15 ; SC-BB-BB
35 37 38 10 100 15 ; BB-BB-SC
38 37 39 10 100 15 ; SC-BB-BB
37 39 40 10 100 15 ; BB-BB-SC
40 39 41 10 100 15 ; SC-BB-BB
39 41 42 10 100 15 ; BB-BB-SC
42 41 43 10 100 15 ; SC-BB-BB
41 43 44 10 100 15 ; BB-BB-SC
44 43 45 10 100 15 ; SC-BB-BB
43 45 46 10 100 15 ; BB-BB-SC

; Side chain angles
 6  7  8 2 120.000 60.0
 6  7  9 2 120.000 60.0
13 14 15 2 180.000 25.0
16 17 18 2 180.000 25.0
23 24 25 2 180.000 25.0
32 33 34 2 180.000 25.0
45 46 47 2 120.000 60.0
45 46 49 2 130.000 60.0

[ dihedrals ]
 2  4  6 11 1 -120 400 1
 4  6 11 13 1 -120 400 1
 6 11 13 16 1 -120 400 1
11 13 16 19 1 -120 400 1
13 16 19 21 1 -120 400 1
16 19 21 23 1 -120 400 1
19 21 23 26 1 -120 400 1
21 23 26 28 1 -120 400 1
23 26 28 30 1 -120 400 1
26 28 30 32 1 -120 400 1
28 30 32 35 1 -120 400 1
30 32 35 37 1 -120 400 1
32 35 37 39 1 -120 400 1
35 37 39 41 1 -120 400 1
37 39 41 43 1 -120 400 1

; SC-BB-BB-SC scFix
 3  2  4  5 1 -140.1 75 1 ; SC-BB-BB-SC
 5  4  6  7 1 -147.8 75 1 ; SC-BB-BB-SC
 7  6 11 12 1 -136.4 75 1 ; SC-BB-BB-SC
12 11 13 14 1 -143.4 75 1 ; SC-BB-BB-SC
14 13 16 17 1 -120.2 75 1 ; SC-BB-BB-SC
17 16 19 20 1 -128.8 75 1 ; SC-BB-BB-SC
20 19 21 22 1 -140.0 75 1 ; SC-BB-BB-SC
22 21 23 24 1 -137.2 75 1 ; SC-BB-BB-SC
24 23 26 27 1 -129.2 75 1 ; SC-BB-BB-SC
27 26 28 29 1 -140.5 75 1 ; SC-BB-BB-SC
29 28 30 31 1 -144.4 75 1 ; SC-BB-BB-SC
31 30 32 33 1 -133.5 75 1 ; SC-BB-BB-SC
33 32 35 36 1 -128.5 75 1 ; SC-BB-BB-SC
36 35 37 38 1 -137.6 75 1 ; SC-BB-BB-SC
38 37 39 40 1 -152.3 75 1 ; SC-BB-BB-SC
40 39 41 42 1 -148.8 75 1 ; SC-BB-BB-SC
42 41 43 44 1 -126.9 75 1 ; SC-BB-BB-SC
44 43 45 46 1 -160.9 75 1 ; SC-BB-BB-SC

[ dihedrals ]
10  8  9  7 2 180.0 50.0
50 49 47 46 2 180.0 100.0

[ exclusions ]
 6  7  8  9 10 
 7  8  9 10 
 8  9 10 
 9 10 
45 46 47 48 49 50 
46 47 48 49 50 
47 48 49 50 
48 49 50 
49 50 

[ virtual_sitesn ]
48 2 50 49 47 46

