[ OuterPO4 ]
2 14 26 38 50 62 74 86 98 110 122 134 146 158 170 
182 194 206 218 230 242 254 266 278 290 302 314 326 338 350 
362 374 386 398 410 422 434 446 458 470 482 494 506 518 530 
542 554 566 578 590 602 614 626 638 650 662 674 686 698 710 
722 734 746 758 770 782 794 806 818 830 842 854 866 878 890 
902 914 926 938 950 962 974 986 998 1010 1022 1034 1046 1058 1070 
1082 1094 1106 1118 1130 1142 1154 1166 1178 1190 1202 1214 1226 1238 1250 
1262 1274 1286 1298 1310 1322 1334 1346 1358 1370 1382 1394 1406 1418 1430 
1442 1454 1466 2387 2399 2411 2423 2435 2447 2459 2471 2483 2495 2507 2519 
2531 2543 2555 2567 2579 2591 2603 2615 2627 2639 2651 2663 2675 2687 2699 
2711 2723 2735 2747 2759 2771 2783 2795 2807 2819 2831 2843 2855 2867 2879 
2891 2903 2915 2927 2939 2951 2963 2975 2987 2999 3011 3023 3035 3047 3059 
3071 3083 3095 3107 3119 3131 3143 3155 3167 3179 3191 3203 3215 3227 3239 
3251 3263 3275 3287 3299 3311 3323 3335 3347 3359 3371 3383 3395 3407 3419 
3431 3443 3455 3467 3479 3491 3503 3515 3527 3539 3551 3563 3575 3587 3599 
3611 3623 3635 3647 3659 3671 3683 3695 3707 3719 3731 3743 3755 3767 3779 
3791 3803 3815 3827 3839 3851 3863 3875 3887 3899 3911 3923 3935 3947 3959 
3971 3983 

[ InnerPO4 ]

