#include "martini.itp"

[ system ]
; name
INSANE! Membrane UpperLeaflet>CHOL:POPC:PSM:POPS=0.42:0.3:0.27:0.01 LowerLeaflet>CHOL:POPE:POPS:POPC=0.42:0.293:0.2:0.087


[ molecules ]
; name  number
CHOL           136
POPC            97
PSM             87
POPS             3
CHOL           136
POPE            94
POPS            64
POPC            28
W            15762
NA             207
CL             140
