#include "martini.itp"

[ system ]
; name
INSANE! Membrane UpperLeaflet>POPC:PSM:CHOL=0.4:0.15:0.45 LowerLeaflet>POPE:POPS:CHOL=0.45:0.15:0.4


[ molecules ]
; name  number
POPC            90
PSM             33
CHOL           101
POPE           101
POPS            33
CHOL            90
W            11753
NA             146
CL             113
